LAMMPS data file via write_data, version 2 Aug 2023, timestep = 0, units = metal

38049 atoms
1 atom types

0 289.20000000000005 xlo xhi
0 144.60000000000002 ylo yhi
0 10.845 zlo zhi

Masses

1 63.55

Atoms # atomic

1 1 1.9701298110032617e-05 1.375450966592788e-05 8.696971821237191e-06 0 0 0
2 1 1.808465425467573 1.8072513855098526 1.4988723715954354e-06 0 0 0
3 1 1.8084646290057709 4.496180423490276e-06 1.8074987229568522 0 0 0
16157 1 137.36485215381913 137.37705796668618 7.229998658984297 0 0 0
5 1 3.616949850672054 144.59999336427785 5.513135562989598e-06 0 -1 0
6 1 5.425398376990624 1.8072802193510007 5.402474383897415e-06 0 0 0
7 1 5.425409533472689 3.526167674434736e-07 1.8074983691123883 0 0 0
8 1 3.616956290836804 1.8072662111028872 1.8075081888720284 0 0 0
161 1 9.851849332744235e-06 3.6144954533766978 1.0692349400844788e-05 0 0 0
162 1 1.8084519425280292 5.4217978943267315 10.844995600244962 0 0 -1
163 1 1.8084708048706286 3.6145175118946944 1.8075005512201034 0 0 0
16156 1 139.17357178027865 139.1829000606886 7.229991559557207 0 0 0
165 1 3.616926893330818 3.6145490518963457 10.844998160058015 0 0 -1
166 1 5.425327194421753 5.421859982199111 1.0434068439860463e-06 0 0 0
167 1 5.425369725807954 3.6145635035055443 1.8074982733901086 0 0 0
168 1 3.6168822005214816 5.421826958424821 1.8074967029416147 0 0 0
16155 1 139.1735941544224 137.37717318387138 9.037506815207147 0 0 0
6402 1 1.8084853946674853 1.8072526865230505 3.6149970106502884 0 0 0
6403 1 1.808481832833523 6.583537177266332e-06 5.422496237956747 0 0 0
16154 1 137.36480393510882 139.18278460426055 9.037490037982442 0 0 0
6405 1 3.6169597582516313 144.59999591181872 3.6149932135914202 0 -1 0
6406 1 5.425403279041753 1.807277548657939 3.6149966131881905 0 0 0
6407 1 5.4254129117895 144.5999893355413 5.422502046773219 0 -1 0
6408 1 3.616942978821807 1.8072785321009328 5.422494833670699 0 0 0
16153 1 140.98237896780148 137.37730246756226 7.2300066218224375 0 0 0
6562 1 1.8084452527154264 5.421799236231571 3.6150017603105393 0 0 0
6563 1 1.8084465297490846 3.6145170924203245 5.422508546462493 0 0 0
6564 1 5.977645562139177e-06 5.421785108184122 5.422506619667369 0 0 0
6565 1 3.616920936982528 3.614532873519579 3.615000495423858 0 0 0
6566 1 5.42533025314836 5.421862053643346 3.6149977968610587 0 0 0
6567 1 5.425372160430186 3.6145607484917868 5.422497928006662 0 0 0
6568 1 3.6169059909236907 5.4218182065081075 5.422498293775848 0 0 0
9 1 7.233841321563757 2.0076701910923514e-06 1.000747824712981e-05 0 0 0
10 1 9.04228762009963 1.807302628185366 10.844997620630398 0 0 -1
11 1 9.042299856303776 4.711612430153596e-06 1.807486443056529 0 0 0
12 1 7.233843285384058 1.8072877133105045 1.8075019094678157 0 0 0
13 1 10.850760022290517 6.35354725495371e-06 10.844998373988231 0 0 -1
16 1 10.850742863952346 1.8073103637753964 1.807500724221889 0 0 0
169 1 7.233820005790459 3.6145864145586106 10.844994741162658 0 0 -1
170 1 9.042205690679191 5.421919645235086 10.844996158785074 0 0 -1
171 1 9.042251649093577 3.614610829692774 1.8075061776820311 0 0 0
172 1 7.233770201016116 5.421892883869935 1.8075015886939925 0 0 0
173 1 10.850706078241346 3.6146130955626363 5.057400422825455e-07 0 0 0
176 1 10.850644975941444 5.4219434321352304 1.8075017788734127 0 0 0
6409 1 7.233847176239163 2.62497510096013e-06 3.6149983340411653 0 0 0
6410 1 9.042286429784738 1.807306847608086 3.6149995356706226 0 0 0
6411 1 9.042300688355757 144.59999708271306 5.422507174523152 0 -1 0
6412 1 7.233840237300292 1.8072933585011708 5.422498661243591 0 0 0
6413 1 10.850759303390632 6.359159192687962e-06 3.6150018698150195 0 0 0
6416 1 10.850741449863444 1.8073057320249017 5.422505652570163 0 0 0
6569 1 7.233822272906196 3.6145897003175587 3.6150053915103735 0 0 0
6570 1 9.042199681504954 5.421915895149699 3.615003958432868 0 0 0
6571 1 9.042254110296799 3.6146081881868284 5.422497170888051 0 0 0
6572 1 7.233773742367178 5.421884557515765 5.422499186309699 0 0 0
6573 1 10.850709320069166 3.614618924747208 3.6149980459665967 0 0 0
6576 1 10.850651617611838 5.421945967115471 5.422501642602192 0 0 0
14 1 12.659195032430098 1.8073183494260565 10.84499740055655 0 0 -1
15 1 12.659218284446723 7.381701899911007e-07 1.807494138009203 0 0 0
17 1 14.46768973410296 1.8121201146566332e-06 10.844999139637226 0 0 -1
18 1 16.276143981486054 1.807348491079227 9.960814927744425e-07 0 0 0
19 1 16.27616129882902 1.8746063469300392e-06 1.8074992754687678 0 0 0
20 1 14.467673576666504 1.8073279626198597 1.807500846258715 0 0 0
174 1 12.659101214931647 5.4219719180069506 2.0712711702654417e-06 0 0 0
175 1 12.659159799369688 3.6146432647320403 1.8075042220498616 0 0 0
177 1 14.467620969860583 3.614672538520035 1.8520810119960954e-06 0 0 0
178 1 16.27601369806651 5.422046851626724 10.844994130886503 0 0 -1
179 1 16.276099153432323 3.6147029958290213 1.807496865395978 0 0 0
180 1 14.46753710003855 5.422004919266857 1.8074972439745494 0 0 0
6414 1 12.659203700558868 1.8073239418297633 3.6150041588755384 0 0 0
6415 1 12.659220804947923 9.437630706026217e-06 5.42250270611967 0 0 0
6417 1 14.467687059324042 144.59999552235521 3.615003270418947 0 -1 0
6418 1 16.276142113363605 1.8073487354700528 3.61499856647167 0 0 0
6419 1 16.27616386177026 144.5999948687277 5.422501435519531 0 -1 0
6420 1 14.467676953410763 1.8073328815707745 5.422501586906564 0 0 0
6574 1 12.659086956263717 5.421972784502008 3.614996672911924 0 0 0
6575 1 12.659162102015381 3.61464880510912 5.422496147191512 0 0 0
6577 1 14.467625375968652 3.6146657535705193 3.6149996162180305 0 0 0
6578 1 16.276011977713242 5.422052983286925 3.6150031635252318 0 0 0
6579 1 16.276096962694435 3.614698019753069 5.42250331608676 0 0 0
6580 1 14.46754638723657 5.4220113104289585 5.422500364842212 0 0 0
21 1 18.084651135564787 4.972651555891201e-06 1.1202352280219227e-06 0 0 0
22 1 19.893108009460782 1.807392720100849 1.9890634617127025e-06 0 0 0
23 1 19.89313281762645 144.59999381363562 1.80749930608314 0 -1 0
24 1 18.08463437900472 1.8073706822772935 1.8075001133878368 0 0 0
25 1 21.70160266027462 144.59999504836458 4.324257080790699e-06 0 -1 0
26 1 23.510042373441934 1.8074718773017777 4.267775871573529e-07 0 0 0
27 1 23.510061476502717 144.59999630830038 1.8075010432145846 0 -1 0
28 1 21.70157938542823 1.8074230188794778 1.80750096005978 0 0 0
181 1 18.084566775581994 3.614739381012349 1.8421887975742973e-06 0 0 0
182 1 19.89295371085188 5.422193392907746 1.314043488471501e-06 0 0 0
183 1 19.893048897106922 3.61478839940905 1.8075021745433417 0 0 0
184 1 18.084478133213082 5.422115169675622 1.8075018158445102 0 0 0
185 1 21.701518282824395 3.614854615839898 10.844995167335343 0 0 -1
186 1 23.509847065851567 5.422401420413183 10.84499950140528 0 0 -1
187 1 23.50996607445644 3.614935448699127 1.8074979575008117 0 0 0
188 1 21.701408172800633 5.422285738392485 1.8074965961180296 0 0 0
6421 1 18.084642933532116 2.1013597578623595e-06 3.6149955833897507 0 0 0
6422 1 19.893111925173123 1.8073933002271754 3.615000961497798 0 0 0
6423 1 19.89313486573746 1.0110292788731675e-05 5.422500036375679 0 0 0
6424 1 18.084635499517542 1.8073725278552664 5.422497217858795 0 0 0
6425 1 21.701607931830356 144.59999538412063 3.614999658485833 0 -1 0
6426 1 23.510039677348708 1.8074671309732169 3.61499485821208 0 0 0
6427 1 23.510058660826772 144.59999229002275 5.422497760129119 0 -1 0
6428 1 21.701578810155624 1.8074254760824744 5.422496926125566 0 0 0
6581 1 18.084574762016214 3.6147405774879005 3.614997665923843 0 0 0
6582 1 19.892948970971258 5.422190225085277 3.614998702176141 0 0 0
6583 1 19.893056347860824 3.6147941849282224 5.422497060157047 0 0 0
6584 1 18.084474629762042 5.422117915361939 5.422497644469636 0 0 0
6585 1 21.70151550447292 3.6148519001656307 3.6150033526400285 0 0 0
6586 1 23.509852830987874 5.4223996549568145 3.614999265860721 0 0 0
6587 1 23.509969538557797 3.6149292320944593 5.422499682891334 0 0 0
6588 1 21.701406745967738 5.4222855670408485 5.422504222147583 0 0 0
29 1 25.318508686127718 144.59999969829775 10.844994836133418 0 -1 -1
30 1 27.126904405188192 1.8075602892106224 7.223722170653468e-06 0 0 0
31 1 27.12693722769277 144.59999885317308 1.807498525648485 0 -1 0
32 1 25.318482784553108 1.8075108263554354 1.8074976989989693 0 0 0
33 1 28.93533394981517 5.6126488256485865e-06 9.39871142739673e-07 0 0 0
36 1 28.935312837584434 1.8076170643243745 1.8075040002952074 0 0 0
189 1 25.318406957041923 3.6150144413079666 3.2396194784586785e-06 0 0 0
190 1 27.126701242531407 5.422671302506853 10.844997269337018 0 0 -1
191 1 27.126824956963077 3.6151106468067553 1.8075016543619395 0 0 0
192 1 25.3182792475973 5.422521157489806 1.8075026321340502 0 0 0
193 1 28.93523583125078 3.6152335985726833 3.7502975899366058e-06 0 0 0
196 1 28.935102628404362 5.422845734211451 1.807497718860857 0 0 0
6429 1 25.318512297931232 144.59998744700061 3.6150060004965336 0 -1 0
6430 1 27.126910594414333 1.8075579840930736 3.61499297323096 0 0 0
6431 1 27.126926295805237 144.59999660793605 5.422495654737096 0 -1 0
6432 1 25.318483587919157 1.8075194665200234 5.422497941844556 0 0 0
6433 1 28.93533538318201 144.5999944781786 3.6149993227904864 0 -1 0
6436 1 28.935304731880624 1.8076131808091753 5.422496559803355 0 0 0
6589 1 25.318408919048018 3.615013533371195 3.6149986775337624 0 0 0
6590 1 27.12669723208716 5.422673584285344 3.615001508199594 0 0 0
6591 1 27.126826760562533 3.6151106211985056 5.422498276610557 0 0 0
6592 1 25.318282210486032 5.422520211827701 5.422498020671306 0 0 0
6593 1 28.935232249877217 3.615229626860539 3.614997651042908 0 0 0
6596 1 28.935100041370706 5.422843015894948 5.422498792456925 0 0 0
34 1 30.743684507877393 1.8076772600854063 8.514197461673907e-07 0 0 0
35 1 30.743699421331367 1.987901433310538e-06 1.8074967807899107 0 0 0
37 1 32.55203416017606 3.192868035123226e-06 10.844997547042485 0 0 -1
38 1 34.360274920138714 1.8078319100377689 8.368264872956164e-08 0 0 0
39 1 34.36030224179207 1.432063050982772e-06 1.8075003231209712 0 0 0
40 1 32.55201074203312 1.8077530451718273 1.807497161405678 0 0 0
194 1 30.743473504450563 5.423029892364204 10.84499663463824 0 0 -1
195 1 30.74360385239992 3.6153579102075897 1.807497830213028 0 0 0
197 1 32.55192042810769 3.615504301306326 3.7815884327744853e-07 0 0 0
198 1 34.360045126550204 5.423472029294031 3.933954783758526e-06 0 0 0
199 1 34.36019213584252 3.615654927222108 1.8075013072173014 0 0 0
200 1 32.55179121042236 5.423242505510781 1.8074980889121874 0 0 0
6434 1 30.743680015646312 1.8076880992026374 3.6149970929789355 0 0 0
6435 1 30.743711279390535 4.523083391501202e-06 5.422497978432284 0 0 0
6437 1 32.55203463620732 7.946391002344036e-07 3.615004473326478 0 0 0
6438 1 34.36027326521473 1.80783138989715 3.6149974435948486 0 0 0
6439 1 34.36030285086328 144.5999930628266 5.422501866211351 0 -1 0
6440 1 32.55201302862604 1.8077579748507004 5.422497607237891 0 0 0
6594 1 30.74347275376588 5.423034419537571 3.615000396081642 0 0 0
6595 1 30.74360425919411 3.6153644824777977 5.4225008378132165 0 0 0
6597 1 32.551925902666724 3.6154953092774855 3.6150019465200116 0 0 0
6598 1 34.360050021836265 5.42347705542158 3.614997041060882 0 0 0
6599 1 34.360181122107996 3.615649824464132 5.422499899104113 0 0 0
6600 1 32.5517915686619 5.4232454113479385 5.422499389109438 0 0 0
41 1 36.16848957795308 144.59999585336726 10.844997163950655 0 -1 -1
42 1 37.97655492684767 1.8080000406241359 1.9242533354446946e-06 0 0 0
43 1 37.97658547843919 6.453481041263277e-06 1.807504730564651 0 0 0
44 1 36.16845678673092 1.8079041968216591 1.8075008479879655 0 0 0
45 1 39.78459716273364 3.6835225175154935e-06 10.844995880872364 0 0 -1
46 1 41.59249285912888 1.808204880222185 10.844996632359369 0 0 -1
47 1 41.59251518009565 144.59999707025972 1.8074968409899912 0 -1 0
48 1 39.784570443239744 1.808101428423661 1.807507546055564 0 0 0
201 1 36.1683727967319 3.6158107407232882 10.844999051648346 0 0 -1
202 1 37.97636252896727 5.4239828983285205 7.122066319614978e-07 0 0 0
203 1 37.97648554212223 3.61599308479031 1.8075019116111495 0 0 0
204 1 36.1682432202648 5.423718767747037 1.8075024364998629 0 0 0
205 1 39.784513290018346 3.616198346252886 3.0382284383735526e-06 0 0 0
206 1 41.592341160669996 5.424576151719353 10.844996439022545 0 0 -1
207 1 41.59243631920496 3.616398501059791 1.8074967606037136 0 0 0
208 1 39.784391498182615 5.424268382332384 1.807501079655063 0 0 0
6441 1 36.168485203867846 3.524861041617274e-06 3.6150021760589848 0 0 0
6442 1 37.97656256089642 1.8079980125614181 3.61499327675838 0 0 0
6443 1 37.97658019477641 144.59999842680415 5.422495712775098 0 -1 0
6444 1 36.16846202866293 1.8079073543213764 5.422501136930127 0 0 0
6445 1 39.784593538539575 5.767358139619685e-06 3.6150035986026694 0 0 0
6446 1 41.59249641987157 1.808211477617244 3.6150043447083093 0 0 0
6447 1 41.59251735488383 144.59998947559077 5.422495630823247 0 -1 0
6448 1 39.78458105736419 1.8081023495128463 5.422493854597532 0 0 0
6601 1 36.16838190764417 3.615817940844085 3.615003306174868 0 0 0
6602 1 37.97636072810462 5.423983845545208 3.614997885457367 0 0 0
6603 1 37.976477080360034 3.615995904484265 5.422499828847338 0 0 0
6604 1 36.16824840699769 5.423722224098342 5.422497519267162 0 0 0
6605 1 39.784509049984 3.6161878948636117 3.6149953004817723 0 0 0
6606 1 41.592339221041065 5.424566454376649 3.6150007786958582 0 0 0
6607 1 41.59244064246767 3.6163999639170648 5.422495642315304 0 0 0
6608 1 39.78439679886326 5.424268714433731 5.422500448767898 0 0 0
49 1 43.400333424318866 144.59999342607654 10.844995490710502 0 -1 -1
50 1 45.20803487749305 1.8084262673613536 1.7081529439104987e-06 0 0 0
51 1 45.208036041884796 2.823805792490801e-06 1.807508758604072 0 0 0
52 1 43.400319612393005 1.808314557693481 1.8075034233106617 0 0 0
53 1 47.01565394620565 9.244376441675071e-06 10.844996863568802 0 0 -1
56 1 47.015642142485575 1.8085288193554065 1.80750020891052 0 0 0
209 1 43.40026388582298 3.616611814992808 1.3910549301488096e-06 0 0 0
210 1 45.207928293955014 5.425212323200649 10.844998205698625 0 0 -1
211 1 45.20798941492218 3.6168282514911017 1.8074936871403224 0 0 0
212 1 43.40018640821392 5.424885483250843 1.807497696621927 0 0 0
213 1 47.015616545158416 3.617046469999333 10.844998447301364 0 0 -1
216 1 47.01558038280072 5.42554689157938 1.8074984421455933 0 0 0
6449 1 43.40033730828138 144.59999589021515 3.615003612233251 0 -1 0
6450 1 45.20802645861833 1.8084232161984877 3.614997369942167 0 0 0
6451 1 45.208046955277766 144.59999722163508 5.422498393067472 0 -1 0
6452 1 43.40031126856608 1.8083074038611318 5.422496777504549 0 0 0
6453 1 47.01565171566623 1.603176905398216e-06 3.615001997618635 0 0 0
6456 1 47.01563369976524 1.8085319589519968 5.422500602607357 0 0 0
6609 1 43.40026182497215 3.616612221408302 3.6150000866832337 0 0 0
6610 1 45.207933706071195 5.425221036390433 3.614998969569172 0 0 0
6611 1 45.2079909429271 3.616829629627866 5.42250237805519 0 0 0
6612 1 43.400183451448804 5.424883402701607 5.422500636973373 0 0 0
6613 1 47.015622324678624 3.617049754432098 3.614998876103854 0 0 0
6616 1 47.015578309694796 5.425548502628768 5.422501785174196 0 0 0
54 1 48.82313458314312 1.8086394214163926 10.844999947129526 0 0 -1
55 1 48.823135268811455 1.0150090554732232e-05 1.807500039004417 0 0 0
57 1 50.630498740042114 144.5999997101562 7.87056653986198e-07 0 -1 0
58 1 52.437769975421084 1.8088599737968365 10.844997689903838 0 0 -1
59 1 52.43775254859006 144.599997548756 1.8074997481033943 0 -1 0
60 1 50.630501437538065 1.8087539077434738 1.8074970314538195 0 0 0
214 1 48.82311214018617 5.425875141339977 10.844997950877504 0 0 -1
215 1 48.823125493257 3.617268398893837 1.8075032352127576 0 0 0
217 1 50.63052025657692 3.61749443792733 1.7845671152536953e-06 0 0 0
218 1 52.437848030836605 5.426524377478519 4.1242352424050977e-07 0 0 0
219 1 52.437798997747784 3.6177082567519308 1.807499378750454 0 0 0
220 1 50.63053670826439 5.426205595864504 1.8074996104596923 0 0 0
6454 1 48.82313535045571 1.8086382423920406 3.6149975300276114 0 0 0
6455 1 48.823131551300015 144.5999960402569 5.422497992013642 0 -1 0
6457 1 50.63049521952212 144.59999135079326 3.6150000194340386 0 -1 0
6458 1 52.43776425237773 1.8088573036693758 3.6150013093243083 0 0 0
6459 1 52.437759518776986 144.59999518633123 5.422494946104333 0 -1 0
6460 1 50.63049720214161 1.8087556762032806 5.422500242977163 0 0 0
6614 1 48.823116338741755 5.425875124808942 3.6149976836521773 0 0 0
6615 1 48.823127784496755 3.6172701682921984 5.422495895260837 0 0 0
6617 1 50.63051913810906 3.6174887579742196 3.6149997315201574 0 0 0
6618 1 52.437850697817304 5.426522907650333 3.6150017129213534 0 0 0
6619 1 52.43779443588111 3.6177063773967606 5.422500248574904 0 0 0
6620 1 50.6305381029996 5.426206534089184 5.4224989131387655 0 0 0
61 1 54.24487655114706 144.59999586479205 10.844999100995585 0 -1 -1
62 1 56.05191449628482 1.8090527590600356 10.844998388549572 0 0 -1
63 1 56.05188712588104 144.59999330385384 1.8075013284623838 0 -1 0
64 1 54.24490104848651 1.8089568590392717 1.8074985757367286 0 0 0
65 1 57.85877122395909 144.59999659445816 4.033985928929044e-06 0 -1 0
68 1 57.85880058296622 1.80914608166495 1.80749840449314 0 0 0
221 1 54.24494587363858 3.61790939916084 10.844997945415415 0 0 -1
222 1 56.052104851711626 5.42711736508277 10.844998854065013 0 0 -1
223 1 56.05197980524832 3.618103377817056 1.807500572192066 0 0 0
224 1 54.24503530328072 5.426829461216841 1.8075016932169725 0 0 0
225 1 57.8588924393906 3.618273565529099 10.844999560225508 0 0 -1
228 1 57.85904584881784 5.427383186890191 1.807499232212375 0 0 0
6461 1 54.24487666031288 144.59999360644434 3.614996951778827 0 -1 0
6462 1 56.05191148709677 1.8090531157401268 3.6149994556473373 0 0 0
6463 1 56.051884098749824 144.5999946849904 5.42249732152715 0 -1 0
6464 1 54.24489472736166 1.8089603586813312 5.422498269666498 0 0 0
6465 1 57.858767271798285 144.59999089585347 3.6149988808502402 0 -1 0
6468 1 57.858798738066206 1.8091383474709084 5.422499758670314 0 0 0
6621 1 54.244946576723855 3.6179106934347254 3.615003003997907 0 0 0
6622 1 56.05209761322277 5.427117410726127 3.614999800586697 0 0 0
6623 1 56.05198596439963 3.6181024563721023 5.422500319394955 0 0 0
6624 1 54.24503195902285 5.426832933885982 5.422499155442209 0 0 0
6625 1 57.85889413986415 3.618278076833463 3.615001459150028 0 0 0
6628 1 57.85904815180883 5.427387552379326 5.422499685884267 0 0 0
66 1 59.66557261858242 1.8092217208370827 2.4832480159833057e-06 0 0 0
67 1 59.6655306364263 144.5999882672517 1.8074979920575684 0 -1 0
69 1 61.47219921367271 4.665425296786565e-06 10.844997036979198 0 0 -1
70 1 63.27879020676788 1.8093518208646258 10.844997360607202 0 0 -1
71 1 63.278746613509256 144.59999676269197 1.8074969562707601 0 -1 0
72 1 61.47223711073678 1.8092960701786922 1.8074991189782017 0 0 0
73 1 65.08519512201387 144.59999309895866 10.844998302695812 0 -1 -1
76 1 65.08525637427766 1.809397846027803 1.8074984905042146 0 0 0
226 1 59.66587512478808 5.427624921778008 10.844999738388315 0 0 -1
227 1 59.665686731262205 3.6184314422337054 1.8075028680003555 0 0 0
229 1 61.472378065754 3.6185756494309125 1.113021349230003e-06 0 0 0
230 1 63.27919913373038 5.428019415362753 10.844999565845997 0 0 -1
231 1 63.27894962395327 3.618693491182628 1.8074982902776757 0 0 0
232 1 61.47258734386526 5.427841038340872 1.8075006089490067 0 0 0
233 1 65.08541932748601 3.618792673009519 5.389943677210629e-07 0 0 0
236 1 65.08569735680445 5.4281714933825045 1.8075001286916812 0 0 0
6466 1 59.66557694342578 1.8092265274726458 3.614995712405426 0 0 0
6467 1 59.66553242539854 144.5999919357672 5.422502733534916 0 -1 0
6469 1 61.47218673999225 144.5999917801559 3.614994499422885 0 -1 0
6470 1 63.2788016801392 1.8093526197853222 3.6150023163413225 0 0 0
6471 1 63.27875043070601 3.869222600599522e-06 5.422503908468214 0 0 0
6472 1 61.47224154930303 1.8092950157713281 5.422499959494144 0 0 0
6473 1 65.08519452662713 144.59999559031297 3.615000599856281 0 -1 0
6476 1 65.08525693184679 1.8093986155193644 5.422502600119513 0 0 0
6626 1 59.66587843214842 5.427630041557486 3.6150015389987713 0 0 0
6627 1 59.665688686160024 3.6184410467204553 5.42249828358247 0 0 0
6629 1 61.47237441085392 3.618573996885574 3.6149981436329406 0 0 0
6630 1 63.27920068018156 5.4280150424697675 3.6150008575876815 0 0 0
6631 1 63.27895473799439 3.6186986785883706 5.422498053042213 0 0 0
6632 1 61.472592681888656 5.427838102229496 5.4225003329297135 0 0 0
6633 1 65.08541079345922 3.6187960348369366 3.614998988138023 0 0 0
6636 1 65.08569529456177 5.428170124065332 5.422499716078682 0 0 0
74 1 66.89160118925213 1.8094420483121092 4.9880955440269616e-06 0 0 0
75 1 66.8915519619972 144.59998699991445 1.8074999453915201 0 -1 0
77 1 68.69783051559185 144.59999429294425 4.2214273509475415e-07 0 -1 0
78 1 70.5040695952038 1.8094688584240644 10.844997327477254 0 0 -1
79 1 70.5040010023669 1.4679409535057504e-06 1.8074957244306542 0 0 0
80 1 68.69787707089966 1.8094558421899543 1.8074993600953568 0 0 0
234 1 66.8920963818792 5.428290765564937 10.844997264093298 0 0 -1
235 1 66.89179673829831 3.6188694668938752 1.8074984016405253 0 0 0
237 1 68.69808109918678 3.618920572508237 10.844997593640393 0 0 -1
238 1 70.50463138259452 5.428413264642019 10.844996882157442 0 0 -1
239 1 70.50428445091934 3.618939103570883 1.8074995096626763 0 0 0
240 1 68.69841430555066 5.428371666577026 1.8074990501819068 0 0 0
6474 1 66.89161345460406 1.8094372121434557 3.6149967780099512 0 0 0
6475 1 66.89155083412166 144.59999415234785 5.422505691137211 0 -1 0
6477 1 68.69781343787032 144.59999443002573 3.6149993659511153 0 -1 0
6478 1 70.50408031732151 1.8094711456084356 3.61500694300549 0 0 0
6479 1 70.50399901927834 144.59999511925895 5.422501025517236 0 -1 0
6480 1 68.69789245312028 1.809454653743764 5.422502757658491 0 0 0
6634 1 66.89210154256362 5.428287575214155 3.614999739250237 0 0 0
6635 1 66.89179616926523 3.6188658607940876 5.422504665123132 0 0 0
6637 1 68.69807667461285 3.618925899376952 3.6149990086635713 0 0 0
6638 1 70.5046319954559 5.428406209729448 3.615001006282531 0 0 0
6639 1 70.5042792014478 3.618949844833362 5.422495027101255 0 0 0
6640 1 68.69841800163046 5.4283722907075855 5.422500440560267 0 0 0
81 1 72.3101327178711 144.599990313564 1.790317611873098e-06 0 -1 0
82 1 74.11627704537887 1.8094552923671667 1.1025843466684881e-06 0 0 0
83 1 74.1161956852044 144.5999961213551 1.807495841213803 0 -1 0
84 1 72.31020528246097 1.809465575702044 1.807503029378248 0 0 0
85 1 75.92224416127789 144.5999875758522 5.488178238844514e-07 0 -1 0
88 1 75.92232497069826 1.8094295017663482 1.807501222739635 0 0 0
241 1 72.31042676514976 3.618941518804449 10.844997934034476 0 0 -1
242 1 74.11689737136776 5.428370156326495 2.542162634020951e-06 0 0 0
243 1 74.11650571856113 3.6189143295514947 1.8074962596201336 0 0 0
244 1 72.31079273318284 5.428403903417589 1.8074990448479251 0 0 0
245 1 75.92255879825932 3.6188564927308873 3.64787570851035e-06 0 0 0
248 1 75.92294580795517 5.428289250578733 1.8075004078018977 0 0 0
6481 1 72.31012971470746 144.5999909122287 3.61499844652775 0 -1 0
6482 1 74.11627751645192 1.8094453372113384 3.615000510305165 0 0 0
6483 1 74.11620727995022 3.1824236838476325e-06 5.422503901172013 0 0 0
6484 1 72.31020607040234 1.8094601234297523 5.422500140679824 0 0 0
6485 1 75.92224147074054 5.079653263208505e-06 3.615006810270353 0 0 0
6488 1 75.92231847219506 1.809419246216625 5.4224975707822765 0 0 0
6641 1 72.31042427884792 3.6189331356955563 3.614998202661796 0 0 0
6642 1 74.11689453116273 5.428362977874557 3.614998016691273 0 0 0
6643 1 74.11650900800934 3.6189086904222254 5.42250264598702 0 0 0
6644 1 72.31078840356042 5.428404554985344 5.422499505111662 0 0 0
6645 1 75.92255506323369 3.618859942165784 3.614996399518917 0 0 0
6648 1 75.92294812384597 5.428281366251135 5.422501339940131 0 0 0
86 1 77.72832408960883 1.8093849835316356 10.844989603597833 0 0 -1
87 1 77.72824937223778 144.5999961910731 1.8074899212856632 0 -1 0
89 1 79.53422518031817 1.1126035700465823e-06 10.844993379245459 0 0 -1
90 1 81.34029673494743 1.8092775257848082 10.844997014579832 0 0 -1
91 1 81.3402212415965 6.835185141268089e-06 1.8074946509287213 0 0 0
92 1 79.53429880450936 1.8093409996946086 1.8075013328166052 0 0 0
93 1 83.14619777523002 144.59999031045695 3.848068404088424e-07 0 -1 0
96 1 83.14628773734525 1.8092115682835872 1.8075008459165152 0 0 0
246 1 77.72896685328013 5.428177371867861 3.8408183447694026e-06 0 0 0
247 1 77.72856330957907 3.618773290078872 1.8074929955877026 0 0 0
249 1 79.53455223983273 3.618674317588747 10.844997287796737 0 0 -1
250 1 81.3409636737683 5.427851705306655 2.919060342203505e-06 0 0 0
251 1 81.34054963270152 3.6185658839033543 1.8075062985433177 0 0 0
252 1 79.53496870456925 5.428030418472 1.8075016905839276 0 0 0
253 1 83.14653602321614 3.618430597262192 10.844998830338202 0 0 -1
256 1 83.14694847192986 5.427643842124974 1.8074982486439128 0 0 0
6486 1 77.72831626187865 1.8093853807480185 3.6150017880633682 0 0 0
6487 1 77.7282361250472 144.59998776954492 5.4225070578509325 0 -1 0
6489 1 79.53423740949034 3.714252279810215e-06 3.6150017077807415 0 0 0
6490 1 81.34029800128641 1.809283002974885 3.6149997687380706 0 0 0
6491 1 81.34021856748313 144.5999941365734 5.4225047000166 0 -1 0
6492 1 79.53430973531702 1.8093423905980244 5.422498679280608 0 0 0
6493 1 83.14620213617071 144.59999697998455 3.6150018425538435 0 -1 0
6496 1 83.14628888170945 1.8092128797548177 5.422496799810447 0 0 0
6646 1 77.7289647541497 5.428174861746735 3.614996644252191 0 0 0
6647 1 77.72856662223344 3.618779834444563 5.422504380113637 0 0 0
6649 1 79.53456500880516 3.618685934300025 3.614998587796904 0 0 0
6650 1 81.34095675502832 5.427855545271042 3.6150031405175125 0 0 0
6651 1 81.3405436446673 3.6185702452670316 5.42249758174836 0 0 0
6652 1 79.53497084907264 5.42802980333825 5.422504128310803 0 0 0
6653 1 83.14654006525664 3.6184234897297443 3.614999261243852 0 0 0
6656 1 83.14694463743133 5.427646628315826 5.422500219399915 0 0 0
94 1 84.95229890454344 1.8091309797548558 10.844998689157176 0 0 -1
95 1 84.95220288001441 144.5999857030165 1.8075004724046044 0 -1 0
97 1 86.75822357908322 144.59998989873003 10.8449960284661 0 -1 -1
98 1 88.56438261906702 1.808953122936361 4.788983581683239e-06 0 0 0
99 1 88.56430021404529 144.59999203655642 1.8075019325393398 0 -1 0
100 1 86.7583191698771 1.8090437220339137 1.8074970917557434 0 0 0
254 1 84.95294484163325 5.427413214827302 10.844999301017882 0 0 -1
255 1 84.9525456627447 3.618279452397716 1.8074978853169907 0 0 0
257 1 86.75855776674986 3.6180994266531634 2.102219047526936e-06 0 0 0
258 1 88.56502438893568 5.426892183617632 10.84499571081478 0 0 -1
259 1 88.56462402271657 3.6179225333382767 1.807493310030501 0 0 0
260 1 86.75896222758088 5.427172355637949 1.8074984636685214 0 0 0
6494 1 84.9522936193393 1.8091332656691266 3.614992828190222 0 0 0
6495 1 84.95220127235135 144.5999930409631 5.422502824429192 0 -1 0
6497 1 86.7582375435302 2.6481098861476723e-07 3.61500091636325 0 0 0
6498 1 88.56437813353354 1.8089438515500758 3.6149949542167783 0 0 0
6499 1 88.56430043087798 144.59999787967456 5.422499048653272 0 -1 0
6500 1 86.75833152936384 1.8090527929381413 5.422496877173699 0 0 0
6654 1 84.95294640136404 5.427412892000525 3.614997865162383 0 0 0
6655 1 84.9525313888074 3.618274001644049 5.422497579204466 0 0 0
6657 1 86.7585566332217 3.6181048509926845 3.615002498393708 0 0 0
6658 1 88.565026138919 5.426892964045139 3.615000195319467 0 0 0
6659 1 88.56461644204543 3.6179193803998495 5.422505073839952 0 0 0
6660 1 86.7589635269256 5.427166384903334 5.42249834642893 0 0 0
101 1 90.37040831404964 144.5999945537105 10.84499835073213 0 -1 -1
102 1 92.17664240664251 1.8087543516235474 2.8510886111155624e-06 0 0 0
103 1 92.17657610385201 144.59999358984808 1.8075041946596457 0 -1 0
104 1 90.37048639817439 1.8088536129731603 1.8075064002113266 0 0 0
105 1 93.98279795724103 144.59999990767795 4.8701982847418845e-06 0 -1 0
108 1 93.98284775080779 1.808643155562395 1.8074913837072868 0 0 0
261 1 90.37070851200868 3.6177246939845307 10.844997437470816 0 0 -1
262 1 92.17728731717278 5.426275362360781 1.2128274402894355e-06 0 0 0
263 1 92.17687326934238 3.617508977009266 1.8074991198394312 0 0 0
264 1 90.37113433942412 5.4265848579106395 1.8075069215424109 0 0 0
265 1 93.98309543494229 3.6172877523403395 10.84499409372682 0 0 -1
268 1 93.98348658379601 5.425952295771838 1.8074960917280452 0 0 0
6501 1 90.37041112876912 144.59999911072148 3.6149903522872995 0 -1 0
6502 1 92.17662929177433 1.8087513615149422 3.614992253127297 0 0 0
6503 1 92.17657718210594 144.5999972131974 5.422501454829067 0 -1 0
6504 1 90.37047938188248 1.8088588837375499 5.422496679693941 0 0 0
6505 1 93.98279692453927 144.59998772635484 3.614996480612077 0 -1 0
6508 1 93.98285741665879 1.808639136311613 5.422504387288415 0 0 0
6661 1 90.37072193270254 3.617719568844426 3.6150000616690385 0 0 0
6662 1 92.17727856737048 5.426275454337756 3.6149977733310217 0 0 0
6663 1 92.17686813900892 3.617508813984086 5.422498160302605 0 0 0
6664 1 90.37113440479511 5.4265912828517715 5.422502633872452 0 0 0
6665 1 93.98309566520108 3.61728965714358 3.6150037984756316 0 0 0
6668 1 93.98348240927507 5.425950981193303 5.422498339577677 0 0 0
106 1 95.78915274041837 1.8085267255681083 10.844998641344674 0 0 -1
107 1 95.78906766146157 144.59999917136363 1.807500962956019 0 -1 0
109 1 97.59544625246022 144.5999932738185 3.8980112063538675e-06 0 -1 0
110 1 99.40194152976716 1.8082922502055208 1.2165409209287033e-07 0 0 0
111 1 99.40187443999932 144.5999972085117 1.8075028675550124 0 -1 0
112 1 97.59550931616502 1.8084087887289597 1.8074934085608967 0 0 0
266 1 95.78973859279913 5.425624994289095 10.844996081413285 0 0 -1
267 1 95.78936756018048 3.6170671510600534 1.8074999893950696 0 0 0
269 1 97.59571705236677 3.6168270882736744 10.844997186075858 0 0 -1
270 1 99.40246932037364 5.42492932611454 10.84499879108472 0 0 -1