LAMMPS data file via write_data, version 2 Aug 2023, timestep = 0, units = metal

29805 atoms
1 atom types

0 330.0803 xlo xhi
0 165.04015 ylo yhi
0 9.902409 zlo zhi

Masses

1 92.90638

Atoms # atomic

1 1 7.647104592121239e-06 1.7209490376532665e-05 1.324829340160697e-06 0 0 0
2 1 1.65066424050863 1.6505900519591896 1.6504019443326374 0 0 0
3 1 3.3013423326591496 1.2599875874908532e-07 1.0166320326559781e-05 0 0 0
4 1 4.952033665110002 1.6505785652100253 1.650404278343222 0 0 0
5 1 6.602715006075133 1.1607736992080534e-05 1.210537796387548e-06 0 0 0
101 1 1.3954196302247751e-05 3.3011600462740516 9.902403151089244 0 0 -1
102 1 1.6506631441823907 4.951737798314712 1.6504086591539624 0 0 0
103 1 3.301340675837952 3.3011657387221995 1.1553336440813698e-05 0 0 0
104 1 4.952038072286615 4.951746704035869 1.6503989325317228 0 0 0
105 1 6.602710758346644 3.3011610412235104 9.902407990972609 0 0 -1
201 1 9.470843660126862e-06 6.602322927586108 1.6686733243601317e-05 0 0 0
203 1 3.3013560605893724 6.602322371503713 1.8580241876786733e-06 0 0 0
205 1 6.602722179970287 6.602327136104479 1.6183253081086999e-06 0 0 0
14900 1 163.3885947501479 160.09507836957144 8.252002942036391 0 0 0
5002 1 1.6506785238911956 1.6505802065243746 4.951201596770031 0 0 0
5003 1 3.3013630944257715 1.0188936020814207e-05 3.300795797754236 0 0 0
5004 1 4.952033759149202 1.6505801570088445 4.951200716120391 0 0 0
5005 1 6.602712415339092 165.04014168374454 3.3008002318024925 0 -1 0
14898 1 160.08555251944264 160.0946955771628 8.252002421048372 0 0 0
5102 1 1.6506728172383647 4.95174871039483 4.951191969269465 0 0 0
5103 1 3.301360744179168 3.3011623461060724 3.3007989440730308 0 0 0
5104 1 4.952045198128417 4.95175361784106 4.951200920369385 0 0 0
5105 1 6.602721506551559 3.3011555777179784 3.300805080676859 0 0 0
5201 1 7.85385067174826e-06 6.602329807615229 3.3007986128229154 0 0 0
5203 1 3.3013536188534265 6.602321581440505 3.300799704900829 0 0 0
5205 1 6.602707863073964 6.60233243149808 3.3008015862346007 0 0 0
10001 1 1.3959852981673442e-05 2.063901519379173e-06 6.601598263788125 0 0 0
10003 1 3.3013679757136667 165.04014507097725 6.601603280067715 0 -1 0
10005 1 6.602698279402287 8.801229626016619e-06 6.60160650300704 0 0 0
2484 1 160.08559430481233 163.39156626950228 8.251999642200316 0 0 0
10103 1 3.3013511084891625 3.301165367481655 6.601598892364355 0 0 0
10105 1 6.602702311972663 3.301168309203431 6.601604403232304 0 0 0
2480 1 163.38860599485682 163.39172873191742 8.252019982904429 0 0 0
10203 1 3.301357547913697 6.602326270840155 6.601609180234805 0 0 0
10205 1 6.6027143644198025 6.602322799269804 6.601605878313423 0 0 0
6 1 8.25338189653963 1.6505881994499731 1.6503964109552072 0 0 0
7 1 9.904059319116646 2.8299848138935095e-08 9.902405831866238 0 0 -1
8 1 11.554739270087195 1.6505989052421266 1.650399687163415 0 0 0
9 1 13.205406923819409 165.04013484466043 9.902398648845288 0 -1 -1
106 1 8.253398158695708 4.951752702895951 1.650397034337576 0 0 0
107 1 9.904072479308493 3.301171600311824 1.3690579974463198e-06 0 0 0
108 1 11.554741337647258 4.951756383973805 1.6504004933755676 0 0 0
109 1 13.2054129646203 3.301185064036126 5.59533300019834e-06 0 0 0
207 1 9.904090119638322 6.602331833463701 9.902404175055011 0 0 -1
209 1 13.205446039520314 6.602363537550034 9.90240496123157 0 0 -1
5006 1 8.253390872797121 1.6505829390385423 4.951202533586971 0 0 0
5007 1 9.904065243821362 165.04014805372992 3.300807139922141 0 -1 0
5008 1 11.554731078427139 1.6505828769643145 4.951208002440507 0 0 0
5009 1 13.205411770151661 165.04014726418157 3.3008156783849536 0 -1 0
5106 1 8.253402559797637 4.951746679953143 4.951210025145513 0 0 0
5107 1 9.904072607252935 3.301168599490758 3.3007992404544804 0 0 0
5108 1 11.554749400136664 4.951761007725761 4.951212583248354 0 0 0
5109 1 13.205413979720431 3.3011829350448796 3.300796207643515 0 0 0
5207 1 9.904097563380784 6.602342694830519 3.30080604748073 0 0 0
5209 1 13.205442570022425 6.602362770722079 3.300806188349297 0 0 0
10007 1 9.904058490275297 165.04014235155643 6.601604249107544 0 -1 0
10009 1 13.205400282308801 165.0401480387206 6.601604224833137 0 -1 0
10107 1 9.904071484206035 3.3011631044330914 6.6016089900796375 0 0 0
10109 1 13.205422506494651 3.301188019635484 6.601608011705442 0 0 0
10207 1 9.904082740626539 6.602346296253806 6.601607462976103 0 0 0
10209 1 13.20543842166586 6.602371296187038 6.601607620798748 0 0 0
10 1 14.856070101085503 1.6506040730683482 1.6503978880046615 0 0 0
11 1 16.506739393188266 165.04012639520477 9.902404517380162 0 -1 -1
12 1 18.157416621667867 1.6506088368626382 1.6503994380863267 0 0 0
13 1 19.80807807551986 1.5068072260354783e-06 5.740809275406071e-06 0 0 0
110 1 14.856093257979518 4.951784786007408 1.6504021094814751 0 0 0
111 1 16.506748601709216 3.301193758787275 2.72559784536807e-06 0 0 0
112 1 18.15743680345913 4.951811136999946 1.650399315474784 0 0 0
113 1 19.808085704140773 3.3012104349765883 9.902404808816152 0 0 -1
211 1 16.506779698767158 6.602397746972974 9.902407661605919 0 0 -1
213 1 19.80810755394568 6.602433261993374 9.908307948157762e-07 0 0 0
5010 1 14.856073211392333 1.6505882616685772 4.951206646574062 0 0 0
5011 1 16.50673712465611 165.04013974338358 3.3008016162866416 0 -1 0
5012 1 18.157415850554482 1.6506154545245995 4.951205717407584 0 0 0
5013 1 19.808072926888947 1.0573915026900643e-05 3.300798015262692 0 0 0
5110 1 14.856093326795778 4.9517899408608725 4.95120281408084 0 0 0
5111 1 16.506750979656083 3.3012012968013873 3.3008034283898997 0 0 0
5112 1 18.157437080602836 4.951809905455053 4.951205095078784 0 0 0
5113 1 19.808079426256786 3.30122211525894 3.3008061109481837 0 0 0
5211 1 16.506771964750378 6.602401014502866 3.30080212718941 0 0 0
5213 1 19.80812004345131 6.602430479489014 3.300800910762409 0 0 0
10011 1 16.50674446462981 6.86074409892285e-06 6.601611242892257 0 0 0
10013 1 19.808078148932108 165.0401455891532 6.601605413546802 0 -1 0
10111 1 16.506742312676867 3.3011975807647667 6.601601760966075 0 0 0
10113 1 19.808089818457308 3.3012168440765253 6.601606921573181 0 0 0
10211 1 16.506777866515957 6.602398527381472 6.601607196474795 0 0 0
10213 1 19.8081156971197 6.602429845124498 6.601606171146684 0 0 0
14 1 21.458736818712012 1.6506153980129905 1.650402609342283 0 0 0
15 1 23.109408471647033 165.0401441752373 3.851863017898351e-06 0 -1 0
16 1 24.76005272903154 1.6506145890337662 1.6503967360477807 0 0 0
17 1 26.41068691487593 165.04014830285797 2.151139603476352e-06 0 -1 0
114 1 21.458755810192756 4.951844823920223 1.6504018484655454 0 0 0
115 1 23.109406494215925 3.301237115152057 9.902406170597114 0 0 -1
116 1 24.760068724684196 4.951862713104197 1.6504022753566865 0 0 0
117 1 26.410705650151513 3.3012495831569932 9.902408491108064 0 0 -1
215 1 23.10943339269085 6.602459645327672 2.3263190607069745e-06 0 0 0
217 1 26.410704212492092 6.602490731583591 9.902407303715307 0 0 -1
5014 1 21.45874457104192 1.6506078853912742 4.951204403539762 0 0 0
5015 1 23.109400335091877 165.04014108939614 3.3007961924243636 0 -1 0
5016 1 24.760050215040273 1.6506282454421723 4.951204723877723 0 0 0
5017 1 26.41069830233945 165.0401476299355 3.300794160539992 0 -1 0
5114 1 21.458761164553817 4.951842934620641 4.951200002966128 0 0 0
5115 1 23.109403472292563 3.301233911819037 3.3008041925064857 0 0 0
5116 1 24.760062661598553 4.951865271586057 4.951200836074782 0 0 0
5117 1 26.410703024029786 3.3012429383314155 3.3008017748861054 0 0 0
5215 1 23.109439985278257 6.602458408002095 3.300803374352748 0 0 0
5217 1 26.41070602819997 6.6024882303084445 3.300802304882284 0 0 0
10015 1 23.109390549075634 165.04014607292964 6.601607367806258 0 -1 0
10017 1 26.410695390384795 2.4120108135063424e-06 6.601610856427866 0 0 0
10115 1 23.109410253328527 3.301231510204213 6.6016061714349785 0 0 0
10117 1 26.41069381546955 3.301248828715147 6.601607291532494 0 0 0
10215 1 23.109434763572526 6.602463758017121 6.601604319830474 0 0 0
10217 1 26.410712855156262 6.6024932012094375 6.6016081233917 0 0 0
18 1 28.061322623378285 1.6506228916722325 1.6503996373172436 0 0 0
19 1 29.711923598419403 2.4443282596228366e-06 9.902404746890875 0 0 -1
20 1 31.362500125270294 1.6506241983003882 1.6503979623508869 0 0 0
21 1 33.013054711109 165.04014831631665 9.902408172436683 0 -1 -1
118 1 28.061329502418182 4.95187696346225 1.6504012650026116 0 0 0
119 1 29.711922257127988 3.301249723727143 4.9184100815160225e-06 0 0 0
120 1 31.36251501217013 4.951884345889505 1.650401849948703 0 0 0
121 1 33.013064317937086 3.301273662415794 2.9072898366568936e-06 0 0 0
219 1 29.711931142900998 6.602517452158914 4.2420202014338407e-07 0 0 0
221 1 33.013096669891716 6.6025440154639075 9.902404412122422 0 0 -1
5018 1 28.061321246613836 1.6506309948251456 4.951203206862535 0 0 0
5019 1 29.711921954349403 165.04014267531724 3.300803385015211 0 -1 0
5020 1 31.362502056910106 1.6506231928454864 4.951202280292009 0 0 0
5021 1 33.01305555308342 165.04014886480525 3.3008023352776976 0 -1 0
5118 1 28.06132278205949 4.95187628178527 4.951202244566983 0 0 0
5119 1 29.711924947528008 3.3012580863485304 3.3007977024695854 0 0 0
5120 1 31.36250789219477 4.95189128388301 4.951201672922626 0 0 0
5121 1 33.013066486196365 3.301273108756102 3.3008036457058334 0 0 0
5219 1 29.71192834174589 6.60251500582666 3.300803859663679 0 0 0
5221 1 33.013092260524495 6.602547050093483 3.3008049340732253 0 0 0
10019 1 29.711922903538554 165.0401495195139 6.601609006199014 0 -1 0
10021 1 33.013056873341846 1.957829145419774e-06 6.601608069498821 0 0 0
10119 1 29.71191862363119 3.30125194899732 6.601605958933279 0 0 0
10121 1 33.01306997753301 3.301270687052592 6.6016022934002985 0 0 0
10219 1 29.711932605284446 6.602514502660101 6.601605158389473 0 0 0
10221 1 33.013089427986934 6.602548907342704 6.601609495062116 0 0 0
22 1 34.66359786184727 1.650638611953721 1.6503987025879412 0 0 0
23 1 36.314132164510575 1.1614105815268475e-06 9.902407763754027 0 0 -1
24 1 37.96463359415407 1.65065714400919 1.6504015932686016 0 0 0
25 1 39.6151132123788 165.0401437944159 9.902406462161686 0 -1 -1
122 1 34.66361274477833 4.951919635667313 1.6503996949020343 0 0 0
123 1 36.31412882370682 3.3012888638584013 9.902407840720091 0 0 -1
124 1 37.964653146915474 4.95196318305556 1.6504075086848757 0 0 0
125 1 39.61513167505671 3.3013271602794694 9.902408472305238 0 0 -1
223 1 36.314171228455685 6.602593896111061 2.8270970976687964e-06 0 0 0
225 1 39.615151720617064 6.6026493401004585 1.268057660800158e-06 0 0 0
5022 1 34.663602738652216 1.6506318334079824 4.9512123934486 0 0 0
5023 1 36.31412381313214 165.0401469187359 3.300808119976759 0 -1 0
5024 1 37.964632340729665 1.6506479857022585 4.951202415813871 0 0 0
5025 1 39.61512136410599 165.04013723333273 3.300808887552188 0 -1 0
5122 1 34.663621696685446 4.951921803104595 4.951201158878931 0 0 0
5123 1 36.31413743586458 3.3012934647215424 3.3008091520023237 0 0 0
5124 1 37.96465966562553 4.951962953634321 4.95120322717871 0 0 0
5125 1 39.61511832087678 3.301323613895101 3.300803245151686 0 0 0
5223 1 36.31416686908938 6.6025980316022785 3.3007985512972478 0 0 0
5225 1 39.61515543668296 6.602637420725189 3.3008011312281624 0 0 0
10023 1 36.31412324088247 165.0401437819156 6.601601676705373 0 -1 0
10025 1 39.6151136227781 1.2294075727609015e-06 6.601602206414247 0 0 0
10123 1 36.314136923892995 3.30129215537387 6.6016006999678325 0 0 0
10125 1 39.615126739697985 3.301327244033347 6.601606274044053 0 0 0
10223 1 36.31416687823533 6.602599328445368 6.60160687514501 0 0 0
10225 1 39.615154040408456 6.602639684994823 6.601605513548281 0 0 0
26 1 41.265580488103005 1.65065467026076 1.6504027606934755 0 0 0
27 1 42.91603688021258 165.04014687055488 7.903709919599842e-06 0 -1 0
28 1 44.56647693514708 1.6506682336557499 1.6503997058126025 0 0 0
29 1 46.21688560798214 7.000037592306928e-06 2.3389097600654413e-06 0 0 0
126 1 41.26560504096338 4.952006822940444 1.6503994483251772 0 0 0
127 1 42.91604384581652 3.301353835395342 8.301743390560824e-07 0 0 0
128 1 44.56648893133745 4.952048240994038 1.6503981852291376 0 0 0
129 1 46.21688726344546 3.3013779095807325 9.902405405245 0 0 -1
227 1 42.91607851494067 6.602711744608485 9.902406199438692 0 0 -1
229 1 46.21693006833445 6.602784174207489 1.432039992790521e-06 0 0 0
5026 1 41.265589919964526 1.6506684784009713 4.951207559556619 0 0 0
5027 1 42.91603635597598 165.04014921483721 3.300799785935185 0 -1 0
5028 1 44.56647108312041 1.650677859191752 4.951201544279703 0 0 0
5029 1 46.216883444794526 4.35090304803513e-06 3.3008009678600816 0 0 0
5126 1 41.26559744194099 4.952003685940902 4.951202323038515 0 0 0
5127 1 42.91604971611178 3.301356871901125 3.300802565545916 0 0 0
5128 1 44.56648672329248 4.952050251239689 4.95120519323204 0 0 0
5129 1 46.216891226675564 3.3013833085082953 3.300799601204589 0 0 0
5227 1 42.91607428596522 6.602711508248295 3.300803389855726 0 0 0
5229 1 46.21693395791515 6.602777641930619 3.300804777883247 0 0 0
10027 1 42.916035023395644 5.049763856447841e-06 6.6015998399978315 0 0 0
10029 1 46.21689613731068 165.0401423586137 6.601604754879622 0 -1 0
10127 1 42.91604279097937 3.3013528047300045 6.6016048868879675 0 0 0
10129 1 46.21689000461402 3.3013833903927003 6.601611883334323 0 0 0
10227 1 42.91607980386848 6.602715937328052 6.6016092406077975 0 0 0
10229 1 46.21693751767856 6.602780120417283 6.60160256630908 0 0 0
30 1 47.86729369421905 1.6507009643736372 1.6504040657921422 0 0 0
31 1 49.51766506621028 165.04014878291437 4.322445772641912e-06 0 -1 0
32 1 51.16805620991882 1.650733905409211 1.650401449373902 0 0 0
33 1 52.818420360156864 3.775429997310472e-06 9.902408171374724 0 0 -1
130 1 47.86732640017521 4.952121488403646 1.6504031199160705 0 0 0
131 1 49.51769764638096 3.301425095328214 9.902403732216815 0 0 -1
132 1 51.16809360357095 4.952194610562859 1.6504008977938773 0 0 0
133 1 52.818444024794935 3.301495186805894 1.7947102746404231e-06 0 0 0
231 1 49.51774538588512 6.602883690921488 9.902408656213542 0 0 -1
233 1 52.81847699763132 6.602984007912945 9.902407086830705 0 0 -1
5030 1 47.867290329092384 1.6506969933596582 4.951200187453371 0 0 0
5031 1 49.51766402212394 7.435203692286001e-06 3.300799503681697 0 0 0
5032 1 51.168055840351045 1.6507307573619223 4.9512009419122185 0 0 0
5033 1 52.81842407612106 165.0401444440001 3.300798490442551 0 -1 0
5130 1 47.86732278115432 4.952117196753644 4.951204049673163 0 0 0
5131 1 49.51769615898352 3.3014302520423304 3.3008096765130164 0 0 0
5132 1 51.16810156850076 4.952192077166691 4.9512040787215845 0 0 0
5133 1 52.81843683693538 3.3014837570604523 3.300800247318116 0 0 0
5231 1 49.51774226148945 6.602877248776529 3.3008017603384854 0 0 0
5233 1 52.818483546882206 6.602988654975595 3.3008034087241374 0 0 0
10031 1 49.51766574028924 165.04014217895312 6.601604532599386 0 -1 0
10033 1 52.818424201291975 4.4906735595258715e-06 6.601610337632998 0 0 0
10131 1 49.51769341733027 3.3014388819501286 6.601604505133399 0 0 0
10133 1 52.818433181916376 3.3014868515903655 6.601606069520005 0 0 0
10231 1 49.51774185175022 6.6028815820021824 6.601606698598012 0 0 0
10233 1 52.81848400752732 6.602982807898848 6.601606975797025 0 0 0
34 1 54.46878091683858 1.6507702514298415 1.6504025806741955 0 0 0
35 1 56.119121283555366 165.0401487697165 9.902408339016315 0 -1 -1
36 1 57.76944158217679 1.650791396851194 1.6503984823883908 0 0 0
37 1 59.419750779489476 165.0401494546547 9.90240437063958 0 -1 -1
134 1 54.468804286425524 4.952285102504079 1.6504041737976665 0 0 0
135 1 56.11912798774606 3.3015461792543186 1.9285394493165698e-06 0 0 0
136 1 57.76944491522224 4.952350234246072 1.6504016073965753 0 0 0
137 1 59.419731159532596 3.3016005944324585 9.902408817655836 0 0 -1
235 1 56.119151503753365 6.603101757911903 9.90240549936754 0 0 -1
237 1 59.41973088505837 6.603205895219256 9.902404529815644 0 0 -1
5034 1 54.468778906035055 1.6507659791056797 4.951204085814177 0 0 0
5035 1 56.119116815165754 7.540383297311871e-06 3.300803012808712 0 0 0
5036 1 57.769445488364966 1.6507856278201878 4.951205836191234 0 0 0
5037 1 59.419746316217456 165.04014290161666 3.300805909375012 0 -1 0
5134 1 54.46879749613667 4.952288068213713 4.951203626445953 0 0 0
5135 1 56.119122788124855 3.3015566154804277 3.3008009156777436 0 0 0
5136 1 57.76944049526393 4.95236704539027 4.951201419484764 0 0 0
5137 1 59.419735913198274 3.3015915180310498 3.300797744438625 0 0 0
5235 1 56.119149022279366 6.603095592192158 3.3008065126996375 0 0 0
5237 1 59.41973518493561 6.603213310767893 3.300805987565022 0 0 0
10035 1 56.119116843393925 165.04013914942058 6.60160548310632 0 -1 0
10037 1 59.41974618602473 1.1930321693219583e-05 6.601606624950388 0 0 0
10135 1 56.119127447433065 3.301557839975173 6.601605200634732 0 0 0
10137 1 59.419733076638465 3.3015920567138837 6.601610393025867 0 0 0
10235 1 56.11914450844788 6.603103357831291 6.601605550532631 0 0 0
10237 1 59.4197351543922 6.603210743650542 6.601607121043893 0 0 0
38 1 61.07000880048747 1.6508009013614904 1.6504033414491404 0 0 0
39 1 62.72026434197423 165.04014943625813 2.2071171169673127e-07 0 -1 0
40 1 64.37049237550988 1.6508402324870102 1.6504013380341431 0 0 0
41 1 66.02069204409327 165.0401355176779 4.305300040555789e-06 0 -1 0
138 1 61.070004591532175 4.952449291606898 1.6504026001518097 0 0 0
139 1 62.72026578511945 3.301661394104793 8.004291977248345e-06 0 0 0
140 1 64.37049425655933 4.952548905347528 1.6504005587408106 0 0 0
141 1 66.02069344034156 3.30174718300247 9.902407725342663 0 0 -1
239 1 62.72025367569458 6.603339024855156 1.6661553827141773e-06 0 0 0
241 1 66.02067496542229 6.6034815283090476 9.902408478987056 0 0 -1
5038 1 61.070011579732935 1.650810591968857 4.951205728812402 0 0 0
5039 1 62.72026726970352 165.0401496076214 3.300800625682555 0 -1 0
5040 1 64.37049301013516 1.6508289341236277 4.951201311272408 0 0 0
5041 1 66.02068969892849 165.0401419525114 3.3008057384078575 0 -1 0
5138 1 61.07001251574712 4.952452063440379 4.951205312147865 0 0 0
5139 1 62.72025838090654 3.3016557492599823 3.3007931281082543 0 0 0
5140 1 64.37049253281774 4.952544431759968 4.951206332186695 0 0 0
5141 1 66.02070726978668 3.301735788416416 3.3008077006293886 0 0 0
5239 1 62.72025696149809 6.603332186624249 3.300799406348509 0 0 0
5241 1 66.02068906313838 6.603479776577166 3.300800262719956 0 0 0
10039 1 62.72026366188175 2.616180871943035e-06 6.601607939624902 0 0 0
10041 1 66.02070650263632 165.04012915211575 6.6015990932520605 0 -1 0
10139 1 62.72026461395229 3.301660708631975 6.601607666144688 0 0 0
10141 1 66.02070430303185 3.301743745368307 6.6016013520373455 0 0 0
10239 1 62.72025676241866 6.603336928344505 6.601607623859244 0 0 0
10241 1 66.02068465495614 6.603478867370591 6.601607824004758 0 0 0
42 1 67.67089966419101 1.6508951933701046 1.6504022727588716 0 0 0
43 1 69.32105116624892 165.04013818317867 9.902405318264455 0 -1 -1
44 1 70.97118722432492 1.6509331252268138 1.6504031487944977 0 0 0
45 1 72.62129098966054 165.04014748073251 9.90240530117591 0 -1 -1
142 1 67.67087263184459 4.952673937801152 1.650403646908747 0 0 0
143 1 69.32103551151042 3.301825398514935 2.904330213596426e-07 0 0 0
144 1 70.97114569732831 4.9528328981267125 1.6503981238255938 0 0 0
145 1 72.62126427726305 3.301950746951384 9.902407775643763 0 0 -1
243 1 69.3210092435946 6.603660430363771 9.902405311584506 0 0 -1
245 1 72.621168105789 6.603909938516511 8.29193107304086e-06 0 0 0
5042 1 67.67089544315618 1.6508873848874688 4.9512041377956075 0 0 0
5043 1 69.32105065382409 5.2735855788985865e-06 3.3008005775803975 0 0 0
5044 1 70.97118089052742 1.6509403919404144 4.951200370368008 0 0 0
5045 1 72.62129207538158 2.309861154479495e-06 3.3008035303512795 0 0 0
5142 1 67.67087520623794 4.952669656408143 4.951203636119159 0 0 0
5143 1 69.32103829356062 3.3018282272346915 3.300807933415106 0 0 0
5144 1 70.97114230432723 4.9528247768231015 4.951203860329494 0 0 0
5145 1 72.62126632427209 3.3019438731801305 3.300798276448239 0 0 0
5243 1 69.32100134913541 6.6036765386182426 3.3008034655083676 0 0 0
5245 1 72.62117607098558 6.6039121360326885 3.300802723232825 0 0 0
10043 1 69.3210494019922 165.04014337225703 6.601612390086016 0 -1 0
10045 1 72.6212932583678 165.04014385709 6.601609541427804 0 -1 0
10143 1 69.32103469877974 3.301826851697874 6.6016005218442055 0 0 0
10145 1 72.62128192842592 3.301939473080375 6.601610684108267 0 0 0
10243 1 69.32099921986055 6.603669699454212 6.60160929569682 0 0 0
10245 1 72.62118144582288 6.603920958422605 6.601597773195845 0 0 0
46 1 74.27135139669892 1.651004270775027 1.650397961460096 0 0 0
47 1 75.92136583939781 165.04014736273274 9.030354700075355e-06 0 -1 0
48 1 77.57131738451817 1.6511184778536834 1.650396594703438 0 0 0
49 1 79.22122419102544 165.04014755186782 9.902405270453741 0 -1 -1
146 1 74.27126303998085 4.9530505966537905 1.6503961296644079 0 0 0
147 1 75.92132938354777 3.302120543332584 9.902402675350936 0 0 -1
148 1 77.57120702016205 4.953366687469094 1.650402646232412 0 0 0
149 1 79.22116279483689 3.302367869543669 9.902403084284618 0 0 -1
247 1 75.9211870682609 6.604287367230642 2.057189009584582e-06 0 0 0
249 1 79.22097880249197 6.604740987473995 9.902407433838514 0 0 -1
5046 1 74.2713505012272 1.6510177441427556 4.951205536738202 0 0 0
5047 1 75.92137766614053 165.0401449196407 3.3007989355007332 0 -1 0
5048 1 77.57131343617998 1.6511229033129085 4.951209041003829 0 0 0
5049 1 79.22122171344566 165.04013542277661 3.300805449907886 0 -1 0
5146 1 74.2712720918531 4.9530436460928575 4.951207474855734 0 0 0
5147 1 75.92131776825269 3.3021225584514418 3.3008050775671793 0 0 0
5148 1 77.57121075990908 4.9533677196875034 4.951207844870911 0 0 0
5149 1 79.22117487251157 3.3023657804812636 3.30080854995661 0 0 0
5247 1 75.92117870498075 6.604287226779776 3.3008009033188523 0 0 0
5249 1 79.22099600024578 6.6047375220225755 3.3008007735336746 0 0 0
10047 1 75.92136846813405 165.04014250164573 6.601601259748818 0 -1 0
10049 1 79.22124133782737 165.0401464415848 6.601608171671593 0 -1 0
10147 1 75.92131563022116 3.302115938848973 6.601610211457414 0 0 0
10149 1 79.22117494259857 3.3023735056153254 6.601605701354331 0 0 0
10247 1 75.921176398825 6.604295590706733 6.601605587816198 0 0 0
10249 1 79.22098257692289 6.6047381794354045 6.6016094379145756 0 0 0
50 1 80.87105500183185 1.6512446334524247 1.6504013658886947 0 0 0
51 1 82.52084551183006 165.0401484599775 9.902401621529014 0 -1 -1
52 1 84.1705824340563 1.6513112772289258 1.650397913432658 0 0 0
53 1 85.82034267092382 5.205512985679013e-06 5.649790029194263e-06 0 0 0
150 1 80.87092633520278 4.953715472588122 1.650409208602608 0 0 0
151 1 82.52079439540441 3.3025689855762814 9.902408677860045 0 0 -1
152 1 84.17048590628586 4.953862324195536 1.650399417009926 0 0 0
153 1 85.82029864235359 3.302555191451334 1.5406890390158421e-06 0 0 0
251 1 82.52062189648022 6.605066365061745 1.5472274075316402e-06 0 0 0
253 1 85.82019672482554 6.6050148521277725 9.902406991119912 0 0 -1
5050 1 80.8710626993847 1.6512380272446268 4.951205041597988 0 0 0
5051 1 82.52085982721037 3.796980613422092e-06 3.3008098185400354 0 0 0
5052 1 84.17058316924702 1.6512982263430602 4.951210322509891 0 0 0
5053 1 85.82033428089147 165.0401438369646 3.300801592505477 0 -1 0
5150 1 80.87092567204463 4.9537066676116 4.9511980539203915 0 0 0
5151 1 82.52077328176678 3.3025731202853286 3.30080421369379 0 0 0
5152 1 84.17048219372391 4.953865815309818 4.951205610717507 0 0 0
5153 1 85.82031444882782 3.302555395827946 3.3007967845259167 0 0 0
5251 1 82.52060775040673 6.6050686703613115 3.3008035230300203 0 0 0
5253 1 85.82020461439522 6.605000527320915 3.3008025969445605 0 0 0
10051 1 82.52084673036033 165.04014332694516 6.601606464791148 0 -1 0
10053 1 85.82032502381965 3.284135246910312e-06 6.601601960333794 0 0 0
10151 1 82.52078817131884 3.3025660723909502 6.6016041182411564 0 0 0
10153 1 85.82029956477352 3.302546137407663 6.60161115584028 0 0 0
10251 1 82.52061550189613 6.605072137285106 6.601604328876249 0 0 0
10253 1 85.82020363516928 6.60500810638678 6.6016105545049735 0 0 0
54 1 87.47008520255486 1.651232785338289 1.6503990387608816 0 0 0
55 1 89.11986342397776 5.921376219808337e-06 9.902408389346155 0 0 -1
56 1 90.7696610763146 1.6511375816937663 1.6504032538348257 0 0 0
57 1 92.41951112626582 4.5317177394337014e-06 3.337282275440842e-06 0 0 0
154 1 87.47004165063716 4.953658849546467 1.6504065226776867 0 0 0
155 1 89.11984413929183 3.3023628700046674 1.5136424929582854e-07 0 0 0
156 1 90.76965975230122 4.953480084024974 1.6504054218692281 0 0 0
157 1 92.41948633645359 3.3022971745082588 9.902407694927543 0 0 -1
255 1 89.1198412967999 6.604721562903675 5.959541176597378e-06 0 0 0
257 1 92.41941449052692 6.604655375767993 9.902408993647668 0 0 -1
5054 1 87.47007077979403 1.6512299494916847 4.951201964383176 0 0 0
5055 1 89.11986691997419 4.258573491505519e-06 3.300802144472993 0 0 0
5056 1 90.76967406972868 1.6511543328330422 4.951203575803109 0 0 0
5057 1 92.41949252522927 165.04014298052365 3.300796135534801 0 -1 0
5154 1 87.47004913770397 4.953653832079469 4.951198272590885 0 0 0
5155 1 89.11984764244183 3.3023523509236785 3.300807266485184 0 0 0
5156 1 90.76966767070559 4.953469949791977 4.95120626941246 0 0 0
5157 1 92.4194780048205 3.3022992564074167 3.3008141429079423 0 0 0
5255 1 89.11983644975808 6.604726285706201 3.3007999031002684 0 0 0
5257 1 92.4194075149809 6.6046525296698615 3.300807214721416 0 0 0
10055 1 89.11985641293874 165.0401425507334 6.601606598840824 0 -1 0
10057 1 92.41950048965167 4.971665469622196e-06 6.601608317766332 0 0 0
10155 1 89.11986012150679 3.302351312983355 6.601601970188577 0 0 0
10157 1 92.41947785239563 3.3023073486430574 6.601597472830604 0 0 0
10255 1 89.11984377621476 6.604716314129571 6.6016031695971105 0 0 0
10257 1 92.41941016560948 6.604664579041156 6.601603017715497 0 0 0
58 1 94.06930189206274 1.6511566803985034 1.6504045325984715 0 0 0
59 1 95.7190699855813 5.873803696638996e-06 5.066849157626499e-06 0 0 0
60 1 97.36883341149176 1.6511937673934864 1.6504072870466984 0 0 0
61 1 99.01860114735166 165.04014541268404 9.902408676279407 0 -1 -1
158 1 94.06924048971098 4.953509733720818 1.6503989101938692 0 0 0
159 1 95.71905884514568 3.3023712493099544 9.902407651788039 0 0 -1
160 1 97.3687797480058 4.953557070979931 1.6504041508317295 0 0 0
161 1 99.01856354633142 3.302384932775108 4.965047075553891e-06 0 0 0
259 1 95.71894945546781 6.6047406068460415 9.902406073153568 0 0 -1
261 1 99.01849144346761 6.604739869399548 4.50733275761198e-06 0 0 0
5058 1 94.06929234727775 1.6511642277474439 4.9512057270542105 0 0 0
5059 1 95.7190805585563 165.04013965055478 3.3007920682128997 0 -1 0
5060 1 97.36883449840468 1.6511866084764515 4.951195460802003 0 0 0
5061 1 99.01860217540707 165.0401434070081 3.3008089765336495 0 -1 0
5158 1 94.06923358170279 4.953513947431092 4.951208311322933 0 0 0
5159 1 95.71905604595678 3.3023690969962587 3.300797350308809 0 0 0
5160 1 97.3687895782765 4.95356294301081 4.951208231082042 0 0 0
5161 1 99.01857870771117 3.3023757982794506 3.3008016892042833 0 0 0
5259 1 95.71895596071208 6.604746752619246 3.300800522033296 0 0 0
5261 1 99.01849079333164 6.6047292002406985 3.3007967826689604 0 0 0
10059 1 95.71907921200199 165.0401486720498 6.601610620756935 0 -1 0
10061 1 99.01859402568458 165.04014262339425 6.6016007810541 0 -1 0
10159 1 95.71904798517252 3.3023708158900265 6.6016126571569185 0 0 0
10161 1 99.01857094476813 3.3023737029862468 6.601603517043396 0 0 0
10259 1 95.71895109525227 6.604741342455184 6.601612072869173 0 0 0
10261 1 99.01848429524946 6.60472593985827 6.601608567717167 0 0 0
62 1 100.66833740358861 1.6511806687157655 1.650390424058847 0 0 0
63 1 102.31810293749287 2.1855955747101187e-06 9.90240440215628 0 0 -1
64 1 103.96786148064214 1.65116420602383 1.6503978098187468 0 0 0
65 1 105.61760565940288 1.2830244066491597e-05 1.6965423386022532e-06 0 0 0
162 1 100.66828330837588 4.95354230837018 1.6504017701629485 0 0 0
163 1 102.31806886062341 3.3023569519286498 5.23210251121357e-06 0 0 0
164 1 103.96777299661673 4.9534946894603324 1.650405159977943 0 0 0
165 1 105.61756344890051 3.302295518765998 2.931032645244425e-06 0 0 0
263 1 102.31796967311942 6.604690578634488 9.902406163210589 0 0 -1
265 1 105.61745485823423 6.604604584289229 9.902407390445346 0 0 -1
5062 1 100.66834431828116 1.6511803867463881 4.95121188102497 0 0 0
5063 1 102.31810702898441 165.0401427261639 3.300801572870039 0 -1 0
5064 1 103.96784122224872 1.6511658314077622 4.951204336206433 0 0 0
5065 1 105.61760440626279 4.12549802108205e-06 3.3007994339573226 0 0 0
5162 1 100.66827770019715 4.95353969334624 4.9512044502681185 0 0 0
5163 1 102.31806500612248 3.3023567357778565 3.300808085499787 0 0 0
5164 1 103.96777276553932 4.953494732287086 4.951200492369439 0 0 0
5165 1 105.61755827736016 3.3023064349795264 3.300802888318554 0 0 0
5263 1 102.31796745590715 6.604695812813568 3.30080790837479 0 0 0
5265 1 105.61745190564156 6.604598137306017 3.3008035903016917 0 0 0
10063 1 102.31811060828757 2.6467193799668946e-06 6.601612693452715 0 0 0
10065 1 105.61761321548668 6.931978002820993e-07 6.601607160146972 0 0 0
10163 1 102.31807164340634 3.302353150064535 6.60159635346195 0 0 0
10165 1 105.61756269091286 3.302301711840076 6.601603555668975 0 0 0
10263 1 102.31797360307125 6.604694895565108 6.6016043229188 0 0 0
10265 1 105.61745352384676 6.604593746485916 6.601608366610731 0 0 0
66 1 107.26734814363458 1.6511230451138241 1.6504081121448428 0 0 0
67 1 108.91709383068627 165.0401499033842 9.902404977704123 0 -1 -1
68 1 110.56685231967589 1.65107851154756 1.650402300279628 0 0 0
69 1 112.216638380938 165.04014220602386 9.90240847502251 0 -1 -1
166 1 107.26725781115496 4.953409543669788 1.6504020529502115 0 0 0
167 1 108.91707078402042 3.3022032067604994 6.79797990980217e-07 0 0 0
168 1 110.5667743556595 4.953231141379828 1.650395985907463 0 0 0
169 1 112.21659043964993 3.3020789773864037 9.902400088022565 0 0 -1
267 1 108.91693488602627 6.604440719724754 9.902408666390373 0 0 -1