# vtk DataFile Version 3.0
# Visuliaze Stress tensor
ASCII
DATASET UNSTRUCTURED_GRID

POINTS  252 float
40.00 0.00 0.00
39.39 6.95 0.00
37.59 13.68 0.00
34.64 20.00 0.00
30.64 25.71 0.00
25.71 30.64 0.00
20.00 34.64 0.00
13.68 37.59 0.00
6.95 39.39 0.00
0.00 40.00 0.00
-6.95 39.39 0.00
-13.68 37.59 0.00
-20.00 34.64 0.00
-25.71 30.64 0.00
-30.64 25.71 0.00
-34.64 20.00 0.00
-37.59 13.68 0.00
-39.39 6.95 0.00
-40.00 0.00 0.00
-39.39 -6.95 0.00
-37.59 -13.68 0.00
-34.64 -20.00 0.00
-30.64 -25.71 0.00
-25.71 -30.64 0.00
-20.00 -34.64 0.00
-13.68 -37.59 0.00
-6.95 -39.39 0.00
-0.00 -40.00 0.00
6.95 -39.39 0.00
13.68 -37.59 0.00
20.00 -34.64 0.00
25.71 -30.64 0.00
30.64 -25.71 0.00
34.64 -20.00 0.00
37.59 -13.68 0.00
39.39 -6.95 0.00
43.62 0.00 0.00
42.95 7.57 0.00
40.98 14.92 0.00
37.77 21.81 0.00
33.41 28.04 0.00
28.04 33.41 0.00
21.81 37.77 0.00
14.92 40.98 0.00
7.57 42.95 0.00
0.00 43.62 0.00
-7.57 42.95 0.00
-14.92 40.98 0.00
-21.81 37.77 0.00
-28.04 33.41 0.00
-33.41 28.04 0.00
-37.77 21.81 0.00
-40.98 14.92 0.00
-42.95 7.57 0.00
-43.62 0.00 0.00
-42.95 -7.57 0.00
-40.98 -14.92 0.00
-37.77 -21.81 0.00
-33.41 -28.04 0.00
-28.04 -33.41 0.00
-21.81 -37.77 0.00
-14.92 -40.98 0.00
-7.57 -42.95 0.00
-0.00 -43.62 0.00
7.57 -42.95 0.00
14.92 -40.98 0.00
21.81 -37.77 0.00
28.04 -33.41 0.00
33.41 -28.04 0.00
37.77 -21.81 0.00
40.98 -14.92 0.00
42.95 -7.57 0.00
47.23 0.00 0.00
46.51 8.20 0.00
44.38 16.15 0.00
40.90 23.61 0.00
36.18 30.36 0.00
30.36 36.18 0.00
23.62 40.90 0.00
16.15 44.38 0.00
8.20 46.51 0.00
0.00 47.23 0.00
-8.20 46.51 0.00
-16.15 44.38 0.00
-23.61 40.90 0.00
-30.36 36.18 0.00
-36.18 30.36 0.00
-40.90 23.61 0.00
-44.38 16.15 0.00
-46.51 8.20 0.00
-47.23 0.00 0.00
-46.51 -8.20 0.00
-44.38 -16.15 0.00
-40.90 -23.61 0.00
-36.18 -30.36 0.00
-30.36 -36.18 0.00
-23.62 -40.90 0.00
-16.15 -44.38 0.00
-8.20 -46.51 0.00
-0.00 -47.23 0.00
8.20 -46.51 0.00
16.15 -44.38 0.00
23.62 -40.90 0.00
30.36 -36.18 0.00
36.18 -30.36 0.00
40.90 -23.62 0.00
44.38 -16.15 0.00
46.51 -8.20 0.00
50.84 0.00 0.00
50.07 8.83 0.00
47.78 17.39 0.00
44.03 25.42 0.00
38.95 32.68 0.00
32.68 38.95 0.00
25.42 44.03 0.00
17.39 47.78 0.00
8.83 50.07 0.00
0.00 50.84 0.00
-8.83 50.07 0.00
-17.39 47.78 0.00
-25.42 44.03 0.00
-32.68 38.95 0.00
-38.95 32.68 0.00
-44.03 25.42 0.00
-47.78 17.39 0.00
-50.07 8.83 0.00
-50.84 0.00 0.00
-50.07 -8.83 0.00
-47.78 -17.39 0.00
-44.03 -25.42 0.00
-38.95 -32.68 0.00
-32.68 -38.95 0.00
-25.42 -44.03 0.00
-17.39 -47.78 0.00
-8.83 -50.07 0.00
-0.00 -50.84 0.00
8.83 -50.07 0.00
17.39 -47.78 0.00
25.42 -44.03 0.00
32.68 -38.95 0.00
38.95 -32.68 0.00
44.03 -25.42 0.00
47.78 -17.39 0.00
50.07 -8.83 0.00
54.46 0.00 0.00
53.63 9.46 0.00
51.18 18.63 0.00
47.16 27.23 0.00
41.72 35.01 0.00
35.01 41.72 0.00
27.23 47.16 0.00
18.63 51.18 0.00
9.46 53.63 0.00
0.00 54.46 0.00
-9.46 53.63 0.00
-18.63 51.18 0.00
-27.23 47.16 0.00
-35.01 41.72 0.00
-41.72 35.01 0.00
-47.16 27.23 0.00
-51.18 18.63 0.00
-53.63 9.46 0.00
-54.46 0.00 0.00
-53.63 -9.46 0.00
-51.18 -18.63 0.00
-47.16 -27.23 0.00
-41.72 -35.01 0.00
-35.01 -41.72 0.00
-27.23 -47.16 0.00
-18.63 -51.18 0.00
-9.46 -53.63 0.00
-0.00 -54.46 0.00
9.46 -53.63 0.00
18.63 -51.18 0.00
27.23 -47.16 0.00
35.01 -41.72 0.00
41.72 -35.01 0.00
47.16 -27.23 0.00
51.18 -18.63 0.00
53.63 -9.46 0.00
58.08 0.00 0.00
57.19 10.08 0.00
54.57 19.86 0.00
50.29 29.04 0.00
44.49 37.33 0.00
37.33 44.49 0.00
29.04 50.29 0.00
19.86 54.57 0.00
10.08 57.19 0.00
0.00 58.08 0.00
-10.08 57.19 0.00
-19.86 54.57 0.00
-29.04 50.29 0.00
-37.33 44.49 0.00
-44.49 37.33 0.00
-50.29 29.04 0.00
-54.57 19.86 0.00
-57.19 10.08 0.00
-58.08 0.00 0.00
-57.19 -10.08 0.00
-54.57 -19.86 0.00
-50.29 -29.04 0.00
-44.49 -37.33 0.00
-37.33 -44.49 0.00
-29.04 -50.29 0.00
-19.86 -54.57 0.00
-10.08 -57.19 0.00
-0.00 -58.08 0.00
10.08 -57.19 0.00
19.86 -54.57 0.00
29.04 -50.29 0.00
37.33 -44.49 0.00
44.49 -37.33 0.00
50.29 -29.04 0.00
54.57 -19.86 0.00
57.19 -10.08 0.00
61.69 0.00 0.00
60.75 10.71 0.00
57.97 21.10 0.00
53.43 30.84 0.00
47.26 39.65 0.00
39.65 47.26 0.00
30.85 53.43 0.00
21.10 57.97 0.00
10.71 60.75 0.00
0.00 61.69 0.00
-10.71 60.75 0.00
-21.10 57.97 0.00
-30.84 53.43 0.00
-39.65 47.26 0.00
-47.26 39.65 0.00
-53.43 30.84 0.00
-57.97 21.10 0.00
-60.75 10.71 0.00
-61.69 0.00 0.00
-60.75 -10.71 0.00
-57.97 -21.10 0.00
-53.43 -30.84 0.00
-47.26 -39.65 0.00
-39.65 -47.26 0.00
-30.85 -53.43 0.00
-21.10 -57.97 0.00
-10.71 -60.75 0.00
-0.00 -61.69 0.00
10.71 -60.75 0.00
21.10 -57.97 0.00
30.85 -53.43 0.00
39.65 -47.26 0.00
47.26 -39.65 0.00
53.43 -30.85 0.00
57.97 -21.10 0.00
60.75 -10.71 0.00

CELLS 216 1080
4 0 36 37 1
4 1 37 38 2
4 2 38 39 3
4 3 39 40 4
4 4 40 41 5
4 5 41 42 6
4 6 42 43 7
4 7 43 44 8
4 8 44 45 9
4 9 45 46 10
4 10 46 47 11
4 11 47 48 12
4 12 48 49 13
4 13 49 50 14
4 14 50 51 15
4 15 51 52 16
4 16 52 53 17
4 17 53 54 18
4 18 54 55 19
4 19 55 56 20
4 20 56 57 21
4 21 57 58 22
4 22 58 59 23
4 23 59 60 24
4 24 60 61 25
4 25 61 62 26
4 26 62 63 27
4 27 63 64 28
4 28 64 65 29
4 29 65 66 30
4 30 66 67 31
4 31 67 68 32
4 32 68 69 33
4 33 69 70 34
4 34 70 71 35
4 35 71 36 0
4 36 72 73 37
4 37 73 74 38
4 38 74 75 39
4 39 75 76 40
4 40 76 77 41
4 41 77 78 42
4 42 78 79 43
4 43 79 80 44
4 44 80 81 45
4 45 81 82 46
4 46 82 83 47
4 47 83 84 48
4 48 84 85 49
4 49 85 86 50
4 50 86 87 51
4 51 87 88 52
4 52 88 89 53
4 53 89 90 54
4 54 90 91 55
4 55 91 92 56
4 56 92 93 57
4 57 93 94 58
4 58 94 95 59
4 59 95 96 60
4 60 96 97 61
4 61 97 98 62
4 62 98 99 63
4 63 99 100 64
4 64 100 101 65
4 65 101 102 66
4 66 102 103 67
4 67 103 104 68
4 68 104 105 69
4 69 105 106 70
4 70 106 107 71
4 71 107 72 36
4 72 108 109 73
4 73 109 110 74
4 74 110 111 75
4 75 111 112 76
4 76 112 113 77
4 77 113 114 78
4 78 114 115 79
4 79 115 116 80
4 80 116 117 81
4 81 117 118 82
4 82 118 119 83
4 83 119 120 84
4 84 120 121 85
4 85 121 122 86
4 86 122 123 87
4 87 123 124 88
4 88 124 125 89
4 89 125 126 90
4 90 126 127 91
4 91 127 128 92
4 92 128 129 93
4 93 129 130 94
4 94 130 131 95
4 95 131 132 96
4 96 132 133 97
4 97 133 134 98
4 98 134 135 99
4 99 135 136 100
4 100 136 137 101
4 101 137 138 102
4 102 138 139 103
4 103 139 140 104
4 104 140 141 105
4 105 141 142 106
4 106 142 143 107
4 107 143 108 72
4 108 144 145 109
4 109 145 146 110
4 110 146 147 111
4 111 147 148 112
4 112 148 149 113
4 113 149 150 114
4 114 150 151 115
4 115 151 152 116
4 116 152 153 117
4 117 153 154 118
4 118 154 155 119
4 119 155 156 120
4 120 156 157 121
4 121 157 158 122
4 122 158 159 123
4 123 159 160 124
4 124 160 161 125
4 125 161 162 126
4 126 162 163 127
4 127 163 164 128
4 128 164 165 129
4 129 165 166 130
4 130 166 167 131
4 131 167 168 132
4 132 168 169 133
4 133 169 170 134
4 134 170 171 135
4 135 171 172 136
4 136 172 173 137
4 137 173 174 138
4 138 174 175 139
4 139 175 176 140
4 140 176 177 141
4 141 177 178 142
4 142 178 179 143
4 143 179 144 108
4 144 180 181 145
4 145 181 182 146
4 146 182 183 147
4 147 183 184 148
4 148 184 185 149
4 149 185 186 150
4 150 186 187 151
4 151 187 188 152
4 152 188 189 153
4 153 189 190 154
4 154 190 191 155
4 155 191 192 156
4 156 192 193 157
4 157 193 194 158
4 158 194 195 159
4 159 195 196 160
4 160 196 197 161
4 161 197 198 162
4 162 198 199 163
4 163 199 200 164
4 164 200 201 165
4 165 201 202 166
4 166 202 203 167
4 167 203 204 168
4 168 204 205 169
4 169 205 206 170
4 170 206 207 171
4 171 207 208 172
4 172 208 209 173
4 173 209 210 174
4 174 210 211 175
4 175 211 212 176
4 176 212 213 177
4 177 213 214 178
4 178 214 215 179
4 179 215 180 144
4 180 216 217 181
4 181 217 218 182
4 182 218 219 183
4 183 219 220 184
4 184 220 221 185
4 185 221 222 186
4 186 222 223 187
4 187 223 224 188
4 188 224 225 189
4 189 225 226 190
4 190 226 227 191
4 191 227 228 192
4 192 228 229 193
4 193 229 230 194
4 194 230 231 195
4 195 231 232 196
4 196 232 233 197
4 197 233 234 198
4 198 234 235 199
4 199 235 236 200
4 200 236 237 201
4 201 237 238 202
4 202 238 239 203
4 203 239 240 204
4 204 240 241 205
4 205 241 242 206
4 206 242 243 207
4 207 243 244 208
4 208 244 245 209
4 209 245 246 210
4 210 246 247 211
4 211 247 248 212
4 212 248 249 213
4 213 249 250 214
4 214 250 251 215
4 215 251 216 180

CELL_TYPES 216
9
9
9
9
9
9
9
9
9
9
9
9
9
9
9
9
9
9
9
9
9
9
9
9
9
9
9
9
9
9
9
9
9
9
9
9
9
9
9
9
9
9
9
9
9
9
9
9
9
9
9
9
9
9
9
9
9
9
9
9
9
9
9
9
9
9
9
9
9
9
9
9
9
9
9
9
9
9
9
9
9
9
9
9
9
9
9
9
9
9
9
9
9
9
9
9
9
9
9
9
9
9
9
9
9
9
9
9
9
9
9
9
9
9
9
9
9
9
9
9
9
9
9
9
9
9
9
9
9
9
9
9
9
9
9
9
9
9
9
9
9
9
9
9
9
9
9
9
9
9
9
9
9
9
9
9
9
9
9
9
9
9
9
9
9
9
9
9
9
9
9
9
9
9
9
9
9
9
9
9
9
9
9
9
9
9
9
9
9
9
9
9
9
9
9
9
9
9
9
9
9
9
9
9
9
9
9
9
9
9
9
9
9
9
9
9
CELL_DATA 216
SCALARS s11 float 1
LOOKUP_TABLE default
0.9197131
0.9507351
0.6468388
0.2604256
-0.2304091
-0.4842303
-0.9456913
-0.8028912
-0.5612887
-0.1277825
0.0022038
0.4542860
0.2115486
-0.2639923
-1.1440413
-2.3972396
-2.7045590
-1.2198950
-1.1683967
-2.6475111
-2.6314461
-1.4433441
-0.4404401
0.1378849
0.2955154
0.0290820
-0.1986123
-0.3842152
-0.8338395
-0.7575697
-0.4357173
0.0086662
0.4192463
0.5911572
0.8874834
1.0706567
0.8034708
0.5923087
0.4309347
0.2289297
-0.3224266
-0.4385286
-0.7509190
-0.6468258
-0.4237446
0.0685500
0.1846608
0.4169678
0.3249115
0.0906114
-0.7921829
-2.1173206
-2.7219599
-1.1920698
-1.1689213
-2.7935009
-2.3145659
-0.9203773
-0.0349876
0.4273789
0.5560138
0.1079469
-0.1476111
-0.3913084
-0.7859844
-0.7737711
-0.5938338
-0.1703474
0.3480331
0.5367520
0.6972698
0.8466559
0.8508254
0.5038321
0.4196015
0.2986150
-0.2067884
-0.4182771
-0.6809303
-0.6005245
-0.3475852
0.2712297
0.2949014
0.3751439
0.5136073
0.4053965
-0.5380354
-1.6167298
-2.6419850
-1.5434271
-1.2706995
-2.5599714
-1.6627324
-0.4485872
0.2884369
0.6349421
0.8981775
0.3858677
0.0797847
-0.2714850
-0.5799279
-0.7067489
-0.6486912
-0.1011631
0.2192880
0.5143658
0.6643501
0.8286286
0.7528628
0.5942631
0.6716965
0.3541493
-0.0350149
-0.2863493
-0.6440485
-0.5119352
-0.3777561
0.3651872
0.3912450
0.4908488
0.6763910
0.6019218
-0.1084622
-1.0912040
-2.3097769
-1.5535842
-1.5921992
-2.2596679
-0.9328345
-0.1540527
0.4721590
0.8427821
0.9753232
0.5898423
0.1916183
-0.2281584
-0.4999453
-0.6669245
-0.5793635
-0.1102296
0.1326289
0.5113083
0.7017647
0.8375594
0.6122378
0.5605390
0.5487766
0.2234924
-0.1009670
-0.3361029
-0.5882839
-0.4451792
-0.4034172
0.4250209
0.5475247
0.6803827
0.8940849
0.6554132
0.0321506
-0.6157281
-1.7935245
-1.1111780
-1.2914128
-1.8548694
-0.5308418
0.0871489
0.5423807
0.8196558
0.8942748
0.5739716
0.0466459
-0.3247920
-0.6001585
-0.6483992
-0.5068698
-0.0902462
0.2121758
0.5144444
0.6590874
0.7056428
0.5480233
0.5481226
0.3469548
0.1133997
-0.1537082
-0.3959747
-0.5377004
-0.5620295
-0.3347644
0.4723144
0.7505228
0.9941075
1.0668633
0.6737517
0.1444375
-0.2227573
-1.0590874
-0.2957151
-0.7518550
-1.2290146
-0.4109724
0.1137477
0.6442522
0.7578330
0.8920196
0.7534692
0.0466060
-0.2978913
-0.6052270
-0.6149503
-0.4811756
0.0052981
0.2017952
0.3772233
0.4911731
0.4466164

SCALARS s22 float 1
LOOKUP_TABLE default
6.3991345
6.5261402
6.6570953
6.7993272
6.7998429
6.5377222
5.8628616
5.1736395
4.5517069
4.0215205
3.1781594
2.5009723
1.8626244
1.0467614
0.3973763
0.1035567
-0.0521836
0.0947604
0.2901224
-0.0441957
-0.0680140
0.2831467
0.8722685
1.7415406
2.6807951
3.2004623
3.9801506
4.8203504
5.4348379
5.9649079
6.7199777
6.9843415
6.8980110
6.6463486
6.5512341
6.4183453
6.2634729
6.4026174
6.5097533
6.6862711
6.6611920
6.5273267
5.9865730
5.3289143
4.6985201
4.1376265
3.2661731
2.4596230
1.8720107
1.3017781
0.6335551
0.1516140
0.0284751
0.1275284
0.0364791
-0.1082398
0.0053206
0.5019052
1.1547635
1.9018954
2.6872223
3.1811377
3.9172927
4.5895317
5.1839548
5.7935084
6.3871481
6.7211290
6.8000897
6.6245525
6.4474480
6.3302635
6.3060684
6.4136766
6.4100907
6.5900054
6.5917977
6.4374189
5.8230387
5.1756701
4.6061174
4.0895272
3.2742166
2.3554712
1.8391898
1.4863912
0.8238626
0.3924017
-0.0125836
-0.1773546
-0.3215375
-0.1459381
0.2293935
0.8215059
1.3608428
1.9980108
2.9338700
3.3787629
3.9924350
4.5332133
5.2797642
5.7768137
6.2841777
6.6747987
6.5784362
6.5840690
6.3765388
6.3932998
6.3054636
6.4284871
6.4577919
6.5569076
6.6505629
6.4436746
5.7762741
5.1686180
4.4043313
3.9400783
3.2833637
2.4867593
2.0471695
1.7753891
1.2021710
0.7375090
0.1747661
-0.1945886
-0.5621678
0.0194700
0.7420297
1.2583627
1.6305667
2.3571564
2.9640613
3.4776047
3.9767238
4.4017888
5.1942927
5.7163746
6.2629144
6.7028320
6.4495863
6.5144859
6.3290347
6.4369452
6.2593988
6.2783166
6.4738741
6.5299571
6.5504675
6.3270585
5.7623761
5.2424310
4.2931839
3.8725382
3.4666046
2.8248925
2.3805087
2.0603369
1.6931475
1.3919515
0.6581497
0.2108686
-0.4042883
0.2514926
1.4228381
1.8350302
1.9815607
2.4404210
2.9181117
3.4021254
3.6480140
4.2138209
4.8266599
5.6927460
6.2596718
6.6116998
6.4853584
6.4188741
6.3597078
6.2968216
6.2270176
6.2975354
6.4395621
6.4242389
6.4517823
6.2075399
5.5972853
4.9293897
4.2158405
3.9873975
3.6806325
3.1886445
2.7052337
2.3057713
2.1574756
2.3980193
1.6806204
0.6458001
0.1325756
1.4017161
2.1976363
2.2499767
2.4039251
2.5292070
2.8923982
3.3597828
3.5420029
4.1433261
4.6253052
5.6401328
6.1806696
6.5626100
6.4549277
6.3074887
6.3163491
6.0876137

SCALARS s12 float 1
LOOKUP_TABLE default
0.1318925
0.3908399
0.4438305
0.5479353
0.3520553
-0.1328985
-0.6777667
-1.2938644
-1.7127192
-1.7589994
-1.6997605
-1.5200484
-1.0852505
-0.3359368
0.1342692
0.1269710
-0.0417696
-0.0394303
-0.0464323
-0.0383787
-0.1364684
-0.0590919
0.3961839
1.0317010
1.4646834
1.5988030
1.6957918
1.5566673
1.2434835
0.7121800
0.2154879
-0.3473243
-0.5317303
-0.5464400
-0.3691380
-0.2076221
0.2096745
0.3303205
0.3986610
0.5441906
0.3216744
-0.1266231
-0.6166320
-1.1011126
-1.4197259
-1.5309180
-1.4883830
-1.2974227
-0.8397343
-0.1199059
0.3386044
0.3160172
-0.0427127
-0.0899869
-0.0518058
-0.0632956
-0.3340669
-0.2652845
0.1357347
0.8673476
1.2254459
1.4744161
1.4986509
1.3853257
1.0887968
0.6005393
0.2251380
-0.3470018
-0.5661107
-0.5826700
-0.3316064
-0.2195459
0.2103800
0.3358725
0.4943774
0.5591128
0.3025615
-0.0982323
-0.5102203
-0.8535438
-1.1498970
-1.2425339
-1.2020253
-1.0425123
-0.5155051
0.1247301
0.5797126
0.6340957
0.0707873
-0.1783941
-0.0170025
-0.1943117
-0.6414320
-0.6086101
-0.1440424
0.6362531
1.0843581
1.4230916
1.2724032
1.1441650
0.9226918
0.5144600
0.1267567
-0.4326261
-0.5577746
-0.5257544
-0.2967360
-0.1791094
0.1507904
0.3284263
0.5912583
0.5703369
0.3684102
-0.0958303
-0.3689552
-0.7479205
-0.9995210
-1.0429988
-0.9394897
-0.8276115
-0.2245414
0.3827729
0.8823817
1.0805501
0.5174294
0.0100176
-0.0951006
-0.5230453
-1.0171691
-1.0490730
-0.4027636
0.3780421
0.8226831
1.1997234
1.0675239
0.9873074
0.9095180
0.5072334
-0.0304114
-0.4110090
-0.5082313
-0.4629802
-0.2455996
-0.0529836
0.0619362
0.3694038
0.5700072
0.5438656
0.3841671
-0.1333857
-0.3333893
-0.7339962
-0.8681157
-0.9294517
-0.7421176
-0.6473207
-0.0236524
0.6435766
1.2218292
1.6152655
1.0984482
0.3461588
-0.2303350
-0.9987025
-1.5228212
-1.3761791
-0.6365316
0.0831319
0.5844609
0.8340773
0.8632254
0.8097969
0.8318419
0.3999152
-0.0991923
-0.4151260
-0.4575147
-0.4453379
-0.2027209
-0.0204280
0.0382133
0.3707709
0.5394500
0.6132075
0.3363119
-0.0924105
-0.3413600
-0.6999429
-0.7166327
-0.8068249
-0.6070127
-0.4870093
0.0537931
0.7828205
1.4219419
2.0448788
1.8624924
0.9397503
-0.9438395
-1.8494193
-1.9805577
-1.6492156
-0.8592995
-0.0943425
0.4495098
0.6467462
0.7480023
0.6748652
0.6779877
0.2688916
-0.0743516
-0.4264758
-0.4725693
-0.4562920
-0.1920554
-0.1010428

SCALARS s21 float 1
LOOKUP_TABLE default
0.1318925
0.3908399
0.4438305
0.5479353
0.3520553
-0.1328985
-0.6777667
-1.2938644
-1.7127192
-1.7589994
-1.6997605
-1.5200484
-1.0852505
-0.3359368
0.1342692
0.1269710
-0.0417696
-0.0394303
-0.0464323
-0.0383787
-0.1364684
-0.0590919
0.3961839
1.0317010
1.4646834
1.5988030
1.6957918
1.5566673
1.2434835
0.7121800
0.2154879
-0.3473243
-0.5317303
-0.5464400
-0.3691380
-0.2076221
0.2096745
0.3303205
0.3986610
0.5441906
0.3216744
-0.1266231
-0.6166320
-1.1011126
-1.4197259
-1.5309180
-1.4883830
-1.2974227
-0.8397343
-0.1199059
0.3386044
0.3160172
-0.0427127
-0.0899869
-0.0518058
-0.0632956
-0.3340669
-0.2652845
0.1357347
0.8673476
1.2254459
1.4744161
1.4986509
1.3853257
1.0887968
0.6005393
0.2251380
-0.3470018
-0.5661107
-0.5826700
-0.3316064
-0.2195459
0.2103800
0.3358725
0.4943774
0.5591128
0.3025615
-0.0982323
-0.5102203
-0.8535438
-1.1498970
-1.2425339
-1.2020253
-1.0425123
-0.5155051
0.1247301
0.5797126
0.6340957
0.0707873
-0.1783941
-0.0170025
-0.1943117
-0.6414320
-0.6086101
-0.1440424
0.6362531
1.0843581
1.4230916
1.2724032
1.1441650
0.9226918
0.5144600
0.1267567
-0.4326261
-0.5577746
-0.5257544
-0.2967360
-0.1791094
0.1507904
0.3284263
0.5912583
0.5703369
0.3684102
-0.0958303
-0.3689552
-0.7479205
-0.9995210
-1.0429988
-0.9394897
-0.8276115
-0.2245414
0.3827729
0.8823817
1.0805501
0.5174294
0.0100176
-0.0951006
-0.5230453
-1.0171691
-1.0490730
-0.4027636
0.3780421
0.8226831
1.1997234
1.0675239
0.9873074
0.9095180
0.5072334
-0.0304114
-0.4110090
-0.5082313
-0.4629802
-0.2455996
-0.0529836
0.0619362
0.3694038
0.5700072
0.5438656
0.3841671
-0.1333857
-0.3333893
-0.7339962
-0.8681157
-0.9294517
-0.7421176
-0.6473207
-0.0236524
0.6435766
1.2218292
1.6152655
1.0984482
0.3461588
-0.2303350
-0.9987025
-1.5228212
-1.3761791
-0.6365316
0.0831319
0.5844609
0.8340773
0.8632254
0.8097969
0.8318419
0.3999152
-0.0991923
-0.4151260
-0.4575147
-0.4453379
-0.2027209
-0.0204280
0.0382133
0.3707709
0.5394500
0.6132075
0.3363119
-0.0924105
-0.3413600
-0.6999429
-0.7166327
-0.8068249
-0.6070127
-0.4870093
0.0537931
0.7828205
1.4219419
2.0448788
1.8624924
0.9397503
-0.9438395
-1.8494193
-1.9805577
-1.6492156
-0.8592995
-0.0943425
0.4495098
0.6467462
0.7480023
0.6748652
0.6779877
0.2688916
-0.0743516
-0.4264758
-0.4725693
-0.4562920
-0.1920554
-0.1010428
